       N       E                     dE             d eps       ncg     rms          rms(c)
DAV:   1     0.768819825004E+02    0.76882E+02   -0.55255E+03  2880   0.264E+02
DAV:   2    -0.140650882509E+02   -0.90947E+02   -0.89378E+02  4320   0.459E+01
DAV:   3    -0.168772409762E+02   -0.28122E+01   -0.28125E+01  2920   0.133E+01
DAV:   4    -0.169036617579E+02   -0.26421E-01   -0.26421E-01  5720   0.144E+00
DAV:   5    -0.169036632612E+02   -0.15033E-05   -0.15033E-05  2920   0.125E-02    0.413E+00
RMM:   6    -0.165264187669E+02    0.37724E+00   -0.37917E-01  2880   0.103E+00    0.249E+00
RMM:   7    -0.165108286894E+02    0.15590E-01   -0.30250E-02  2880   0.372E-01    0.107E+00
RMM:   8    -0.165052780594E+02    0.55506E-02   -0.77686E-03  2880   0.239E-01    0.142E-01
RMM:   9    -0.165039989008E+02    0.12792E-02   -0.90097E-04  2880   0.597E-02    0.780E-02
RMM:  10    -0.165028089142E+02    0.11900E-02   -0.47137E-04  2880   0.493E-02    0.268E-02
RMM:  11    -0.165027840028E+02    0.24911E-04   -0.14583E-04  2880   0.229E-02    0.193E-02
RMM:  12    -0.165030763127E+02   -0.29231E-03   -0.60637E-05  2880   0.150E-02    0.185E-02
RMM:  13    -0.165034048367E+02   -0.32852E-03   -0.39076E-05  2880   0.127E-02    0.703E-03
RMM:  14    -0.165035643646E+02   -0.15953E-03   -0.48617E-06  2864   0.412E-03    0.343E-03
RMM:  15    -0.165036455282E+02   -0.81164E-04   -0.39661E-06  2724   0.327E-03    0.176E-03
RMM:  16    -0.165036969192E+02   -0.51391E-04   -0.13759E-06  2639   0.163E-03    0.835E-04
RMM:  17    -0.165037331461E+02   -0.36227E-04   -0.77534E-07  2599   0.139E-03    0.633E-04
RMM:  18    -0.165037488808E+02   -0.15735E-04   -0.25683E-07  2347   0.765E-04    0.292E-04
RMM:  19    -0.165037558810E+02   -0.70002E-05   -0.94715E-08  2272   0.526E-04    0.136E-04
RMM:  20    -0.165037564886E+02   -0.60761E-06   -0.80271E-10  2030   0.254E-04
   1 F= -.16503756E+02 E0= -.16503776E+02  d E =-.165038E+02
       N       E                     dE             d eps       ncg     rms          rms(c)
DAV:   1    -0.165468691305E+02   -0.43113E-01   -0.16008E+00  3840   0.240E+00    0.258E-01
RMM:   2    -0.165476095257E+02   -0.74040E-03   -0.19452E-02  2880   0.383E-01    0.941E-02
RMM:   3    -0.165475050162E+02    0.10451E-03   -0.56401E-04  2880   0.690E-02    0.473E-02
RMM:   4    -0.165475085471E+02   -0.35309E-05   -0.15573E-04  2880   0.294E-02    0.155E-02
RMM:   5    -0.165475117078E+02   -0.31607E-05   -0.40846E-06  2880   0.533E-03    0.594E-03
RMM:   6    -0.165475154361E+02   -0.37283E-05   -0.10725E-06  2611   0.272E-03    0.127E-03
RMM:   7    -0.165475195002E+02   -0.40640E-05   -0.17251E-07  2448   0.949E-04    0.897E-04
RMM:   8    -0.165475246370E+02   -0.51369E-05   -0.30300E-07  2494   0.107E-03    0.581E-04
RMM:   9    -0.165475270168E+02   -0.23797E-05   -0.47392E-08  2261   0.450E-04    0.256E-04
RMM:  10    -0.165475299841E+02   -0.29674E-05   -0.12051E-07  2380   0.615E-04    0.233E-04
RMM:  11    -0.165475306750E+02   -0.69088E-06   -0.79487E-09  2100   0.294E-04
   2 F= -.16547531E+02 E0= -.16547553E+02  d E =-.437742E-01
       N       E                     dE             d eps       ncg     rms          rms(c)
DAV:   1    -0.165825042260E+02   -0.34974E-01   -0.41334E+00  2880   0.388E+00    0.467E-01
RMM:   2    -0.165858648971E+02   -0.33607E-02   -0.65012E-02  2880   0.693E-01    0.154E-01
RMM:   3    -0.165855874853E+02    0.27741E-03   -0.17286E-03  2880   0.126E-01    0.795E-02
RMM:   4    -0.165855659398E+02    0.21546E-04   -0.45776E-04  2880   0.504E-02    0.242E-02
RMM:   5    -0.165855722880E+02   -0.63482E-05   -0.10532E-05  2880   0.876E-03    0.128E-02
RMM:   6    -0.165855827345E+02   -0.10446E-04   -0.60499E-06  2880   0.567E-03    0.298E-03
RMM:   7    -0.165855897820E+02   -0.70475E-05   -0.38408E-07  2492   0.135E-03    0.181E-03
RMM:   8    -0.165856027792E+02   -0.12997E-04   -0.97222E-07  2613   0.182E-03    0.775E-04
RMM:   9    -0.165856093118E+02   -0.65326E-05   -0.26297E-07  2505   0.916E-04    0.715E-04
RMM:  10    -0.165856160458E+02   -0.67340E-05   -0.36642E-07  2464   0.934E-04    0.472E-04
RMM:  11    -0.165856174134E+02   -0.13676E-05   -0.35559E-08  2191   0.383E-04    0.167E-04
RMM:  12    -0.165856187674E+02   -0.13540E-05   -0.55075E-08  2262   0.445E-04    0.935E-05
RMM:  13    -0.165856190155E+02   -0.24805E-06   -0.62629E-10  2031   0.250E-04
   3 F= -.16585619E+02 E0= -.16585682E+02  d E =-.818625E-01
       N       E                     dE             d eps       ncg     rms          rms(c)
DAV:   1    -0.165888699232E+02   -0.32512E-02   -0.85347E-01  3280   0.177E+00    0.211E-01
RMM:   2    -0.165895580549E+02   -0.68813E-03   -0.13271E-02  2880   0.311E-01    0.734E-02
RMM:   3    -0.165895009445E+02    0.57110E-04   -0.35413E-04  2880   0.557E-02    0.381E-02
RMM:   4    -0.165895005808E+02    0.36374E-06   -0.96267E-05  2880   0.231E-02    0.112E-02
RMM:   5    -0.165895012237E+02   -0.64288E-06   -0.21106E-06  2779   0.392E-03
   4 F= -.16589501E+02 E0= -.16589608E+02  d E =-.857447E-01
       N       E                     dE             d eps       ncg     rms          rms(c)
DAV:   1    -0.166077767548E+02   -0.18276E-01   -0.19137E+00  3120   0.264E+00    0.255E-01
RMM:   2    -0.166104254723E+02   -0.26487E-02   -0.31100E-02  2880   0.483E-01    0.898E-02
RMM:   3    -0.166103817080E+02    0.43764E-04   -0.71287E-04  2880   0.817E-02    0.417E-02
RMM:   4    -0.166103866024E+02   -0.48943E-05   -0.10832E-04  2880   0.279E-02    0.800E-03
RMM:   5    -0.166103882627E+02   -0.16603E-05   -0.34469E-06  2767   0.529E-03    0.487E-03
RMM:   6    -0.166103909916E+02   -0.27289E-05   -0.19998E-06  2795   0.351E-03    0.926E-04
RMM:   7    -0.166103913187E+02   -0.32712E-06   -0.97280E-08  2366   0.836E-04
   5 F= -.16610391E+02 E0= -.16610541E+02  d E =-.208901E-01
       N       E                     dE             d eps       ncg     rms          rms(c)
DAV:   1    -0.166127354475E+02   -0.23445E-02   -0.67045E-01  3200   0.156E+00    0.147E-01
RMM:   2    -0.166136301669E+02   -0.89472E-03   -0.10480E-02  2880   0.283E-01    0.531E-02
RMM:   3    -0.166136127913E+02    0.17376E-04   -0.23726E-04  2880   0.472E-02    0.239E-02
RMM:   4    -0.166136148500E+02   -0.20587E-05   -0.36281E-05  2880   0.161E-02    0.475E-03
RMM:   5    -0.166136152795E+02   -0.42952E-06   -0.11078E-06  2483   0.304E-03
   6 F= -.16613615E+02 E0= -.16613753E+02  d E =-.241141E-01
       N       E                     dE             d eps       ncg     rms          rms(c)
DAV:   1    -0.166162766865E+02   -0.26618E-02   -0.79969E-02  3240   0.538E-01    0.688E-02
RMM:   2    -0.166162920340E+02   -0.15347E-04   -0.11701E-03  2880   0.900E-02    0.367E-02
RMM:   3    -0.166162787222E+02    0.13312E-04   -0.44757E-05  2880   0.171E-02    0.186E-02
RMM:   4    -0.166162752507E+02    0.34715E-05   -0.13153E-05  2880   0.864E-03    0.427E-03
RMM:   5    -0.166162748475E+02    0.40319E-06   -0.44436E-07  2419   0.170E-03
   7 F= -.16616275E+02 E0= -.16616419E+02  d E =-.265957E-02
       N       E                     dE             d eps       ncg     rms          rms(c)
DAV:   1    -0.166172091111E+02   -0.93386E-03   -0.46835E-02  3560   0.411E-01    0.520E-02
RMM:   2    -0.166172102357E+02   -0.11246E-05   -0.61159E-04  2880   0.664E-02    0.278E-02
RMM:   3    -0.166172010589E+02    0.91768E-05   -0.25036E-05  2880   0.127E-02    0.136E-02
RMM:   4    -0.166171988557E+02    0.22032E-05   -0.72294E-06  2880   0.642E-03    0.328E-03
RMM:   5    -0.166171992161E+02   -0.36037E-06   -0.29784E-07  2388   0.134E-03
   8 F= -.16617199E+02 E0= -.16617346E+02  d E =-.358394E-02
       N       E                     dE             d eps       ncg     rms          rms(c)
DAV:   1    -0.166166157361E+02    0.58312E-03   -0.18711E-01  2880   0.821E-01    0.105E-01
RMM:   2    -0.166166605968E+02   -0.44861E-04   -0.28163E-03  2880   0.142E-01    0.554E-02
RMM:   3    -0.166166309924E+02    0.29604E-04   -0.10416E-04  2880   0.266E-02    0.287E-02
RMM:   4    -0.166166249901E+02    0.60023E-05   -0.32426E-05  2880   0.135E-02    0.663E-03
RMM:   5    -0.166166251820E+02   -0.19190E-06   -0.10793E-06  2567   0.262E-03
   9 F= -.16616625E+02 E0= -.16616775E+02  d E =-.300990E-02
       N       E                     dE             d eps       ncg     rms          rms(c)
DAV:   1    -0.166173968199E+02   -0.77183E-03   -0.79153E-02  2880   0.534E-01    0.699E-02
RMM:   2    -0.166174352293E+02   -0.38409E-04   -0.13272E-03  2880   0.953E-02    0.358E-02
RMM:   3    -0.166174312396E+02    0.39897E-05   -0.45287E-05  2880   0.174E-02    0.187E-02
RMM:   4    -0.166174365781E+02   -0.53385E-05   -0.14317E-05  2880   0.890E-03    0.429E-03
RMM:   5    -0.166174375598E+02   -0.98170E-06   -0.40096E-07  2434   0.167E-03
  10 F= -.16617438E+02 E0= -.16617586E+02  d E =-.382228E-02
       N       E                     dE             d eps       ncg     rms          rms(c)
DAV:   1    -0.166187232798E+02   -0.12867E-02   -0.17074E-01  3040   0.815E-01    0.607E-02
RMM:   2    -0.166188817788E+02   -0.15850E-03   -0.19369E-03  2880   0.124E-01    0.272E-02
RMM:   3    -0.166188778388E+02    0.39400E-05   -0.43508E-05  2880   0.212E-02    0.141E-02
RMM:   4    -0.166188779456E+02   -0.10680E-06   -0.74022E-06  2881   0.758E-03
  11 F= -.16618878E+02 E0= -.16619045E+02  d E =-.144039E-02
       N       E                     dE             d eps       ncg     rms          rms(c)
DAV:   1    -0.166184913585E+02    0.38648E-03   -0.13407E+00  2880   0.229E+00    0.176E-01
RMM:   2    -0.166196927550E+02   -0.12014E-02   -0.14900E-02  2880   0.350E-01    0.791E-02
RMM:   3    -0.166196397144E+02    0.53041E-04   -0.33887E-04  2880   0.599E-02    0.409E-02
RMM:   4    -0.166196247459E+02    0.14969E-04   -0.61286E-05  2883   0.216E-02    0.846E-03
RMM:   5    -0.166196255836E+02   -0.83773E-06   -0.18861E-06  2564   0.380E-03
  12 F= -.16619626E+02 E0= -.16619808E+02  d E =-.218802E-02
       N       E                     dE             d eps       ncg     rms          rms(c)
DAV:   1    -0.166197565513E+02   -0.13181E-03   -0.83972E-02  3040   0.572E-01    0.430E-02
RMM:   2    -0.166198369391E+02   -0.80388E-04   -0.98638E-04  2880   0.882E-02    0.198E-02
RMM:   3    -0.166198344471E+02    0.24919E-05   -0.21348E-05  2880   0.148E-02    0.102E-02
RMM:   4    -0.166198341976E+02    0.24955E-06   -0.36460E-06  2880   0.537E-03
  13 F= -.16619834E+02 E0= -.16620036E+02  d E =-.239664E-02
       N       E                     dE             d eps       ncg     rms          rms(c)
DAV:   1    -0.166209107452E+02   -0.10763E-02   -0.19144E-01  2920   0.863E-01    0.693E-02
RMM:   2    -0.166211616189E+02   -0.25087E-03   -0.29150E-03  2880   0.149E-01    0.298E-02
RMM:   3    -0.166211643131E+02   -0.26942E-05   -0.67387E-05  2880   0.257E-02    0.179E-02
RMM:   4    -0.166211660761E+02   -0.17629E-05   -0.10904E-05  2880   0.931E-03    0.319E-03
RMM:   5    -0.166211664500E+02   -0.37390E-06   -0.33840E-07  2323   0.178E-03
  14 F= -.16621166E+02 E0= -.16621306E+02  d E =-.133225E-02
       N       E                     dE             d eps       ncg     rms          rms(c)
DAV:   1    -0.166214151455E+02   -0.24907E-03   -0.66412E-02  3080   0.508E-01    0.414E-02
RMM:   2    -0.166215058371E+02   -0.90692E-04   -0.10539E-03  2880   0.884E-02    0.171E-02
RMM:   3    -0.166215077349E+02   -0.18979E-05   -0.24627E-05  2880   0.153E-02    0.104E-02
RMM:   4    -0.166215091863E+02   -0.14513E-05   -0.38360E-06  2880   0.557E-03    0.190E-03
RMM:   5    -0.166215094387E+02   -0.25246E-06   -0.12186E-07  2308   0.106E-03
  15 F= -.16621509E+02 E0= -.16621569E+02  d E =-.167524E-02
       N       E                     dE             d eps       ncg     rms          rms(c)
DAV:   1    -0.166206663479E+02    0.84284E-03   -0.26532E-01  2880   0.102E+00    0.812E-02
RMM:   2    -0.166210224324E+02   -0.35608E-03   -0.41129E-03  2880   0.176E-01    0.355E-02
RMM:   3    -0.166210268096E+02   -0.43772E-05   -0.94791E-05  2880   0.305E-02    0.215E-02
RMM:   4    -0.166210291372E+02   -0.23276E-05   -0.14823E-05  2880   0.109E-02    0.380E-03
RMM:   5    -0.166210296349E+02   -0.49772E-06   -0.49356E-07  2359   0.212E-03
  16 F= -.16621030E+02 E0= -.16621062E+02  d E =-.119544E-02
       N       E                     dE             d eps       ncg     rms          rms(c)
DAV:   1    -0.166213148815E+02   -0.28574E-03   -0.13091E-01  2880   0.714E-01    0.608E-02
RMM:   2    -0.166215134262E+02   -0.19854E-03   -0.23094E-03  2880   0.127E-01    0.260E-02
RMM:   3    -0.166215145395E+02   -0.11133E-05   -0.51390E-05  2880   0.219E-02    0.166E-02
RMM:   4    -0.166215143585E+02    0.18102E-06   -0.79373E-06  2880   0.792E-03
  17 F= -.16621514E+02 E0= -.16621558E+02  d E =-.168016E-02
       N       E                     dE             d eps       ncg     rms          rms(c)
DAV:   1    -0.166215297790E+02   -0.15240E-04   -0.34894E-03  4640   0.116E-01    0.822E-03
RMM:   2    -0.166215321258E+02   -0.23468E-05   -0.29815E-05  2880   0.162E-02    0.419E-03
RMM:   3    -0.166215321805E+02   -0.54649E-07   -0.81365E-07  2389   0.285E-03
  18 F= -.16621532E+02 E0= -.16621581E+02  d E =-.169798E-02
       N       E                     dE             d eps       ncg     rms          rms(c)
DAV:   1    -0.166215347698E+02   -0.26440E-05   -0.28987E-03  4280   0.106E-01    0.739E-03
RMM:   2    -0.166215371685E+02   -0.23988E-05   -0.30704E-05  2880   0.158E-02    0.351E-03
RMM:   3    -0.166215371180E+02    0.50535E-07   -0.68719E-07  2364   0.265E-03
  19 F= -.16621537E+02 E0= -.16621592E+02  d E =-.170292E-02
       N       E                     dE             d eps       ncg     rms          rms(c)
DAV:   1    -0.166215369386E+02    0.22990E-06   -0.39647E-04  4560   0.390E-02    0.274E-03
RMM:   2    -0.166215373122E+02   -0.37353E-06   -0.36585E-06  2809   0.539E-03
  20 F= -.16621537E+02 E0= -.16621589E+02  d E =-.170311E-02
       N       E                     dE             d eps       ncg     rms          rms(c)
DAV:   1    -0.166215435144E+02   -0.65758E-05   -0.20127E-02  2920   0.277E-01    0.232E-02
RMM:   2    -0.166215617435E+02   -0.18229E-04   -0.23824E-04  2880   0.439E-02    0.903E-03
RMM:   3    -0.166215607040E+02    0.10395E-05   -0.53180E-06  2834   0.751E-03    0.386E-03
RMM:   4    -0.166215602650E+02    0.43899E-06   -0.67879E-07  2329   0.239E-03
  21 F= -.16621560E+02 E0= -.16621624E+02  d E =-.229529E-04
       N       E                     dE             d eps       ncg     rms          rms(c)
DAV:   1    -0.166215735657E+02   -0.12862E-04   -0.32319E-03  3040   0.111E-01    0.947E-03
RMM:   2    -0.166215769468E+02   -0.33811E-05   -0.39652E-05  2880   0.176E-02    0.369E-03
RMM:   3    -0.166215771001E+02   -0.15323E-06   -0.77985E-07  2344   0.300E-03
  22 F= -.16621577E+02 E0= -.16621635E+02  d E =-.397879E-04
       N       E                     dE             d eps       ncg     rms          rms(c)
DAV:   1    -0.166215793438E+02   -0.23969E-05   -0.26934E-04  4960   0.318E-02    0.248E-03
RMM:   2    -0.166215793809E+02   -0.37145E-07   -0.17169E-06  2518   0.383E-03
  23 F= -.16621579E+02 E0= -.16621639E+02  d E =-.420687E-04
       N       E                     dE             d eps       ncg     rms          rms(c)
DAV:   1    -0.166215779991E+02    0.13447E-05   -0.12668E-04  4320   0.218E-02    0.140E-03
RMM:   2    -0.166215781060E+02   -0.10694E-06   -0.87209E-07  2371   0.271E-03
  24 F= -.16621578E+02 E0= -.16621637E+02  d E =-.407939E-04
       N       E                     dE             d eps       ncg     rms          rms(c)
DAV:   1    -0.166215790839E+02   -0.10848E-05   -0.31382E-05  4600   0.109E-02    0.663E-04
RMM:   2    -0.166215790847E+02   -0.82696E-09   -0.19480E-07  2216   0.128E-03
  25 F= -.16621579E+02 E0= -.16621638E+02  d E =-.417726E-04
       N       E                     dE             d eps       ncg     rms          rms(c)
DAV:   1    -0.166215794965E+02   -0.41261E-06   -0.78460E-06  4400   0.552E-03    0.490E-04
RMM:   2    -0.166215794845E+02    0.12078E-07   -0.73646E-08  2040   0.827E-04
  26 F= -.16621579E+02 E0= -.16621639E+02  d E =-.421723E-04
       N       E                     dE             d eps       ncg     rms          rms(c)
DAV:   1    -0.166215795058E+02   -0.92638E-08   -0.69334E-07  4320   0.168E-03    0.189E-04
RMM:   2    -0.166215794982E+02    0.75656E-08   -0.54305E-09  1188   0.309E-04
  27 F= -.16621579E+02 E0= -.16621639E+02  d E =-.421861E-04
       N       E                     dE             d eps       ncg     rms          rms(c)
DAV:   1    -0.166215794565E+02    0.49285E-07   -0.93678E-07  4200   0.192E-03    0.135E-04
RMM:   2    -0.166215794514E+02    0.50991E-08   -0.47548E-09   997   0.308E-04
  28 F= -.16621579E+02 E0= -.16621639E+02  d E =-.421392E-04
       N       E                     dE             d eps       ncg     rms          rms(c)
DAV:   1    -0.166215794900E+02   -0.33452E-07   -0.46444E-07  4280   0.133E-03    0.126E-04
RMM:   2    -0.166215794928E+02   -0.28450E-08    0.00000E+00   752   0.169E-04
  29 F= -.16621579E+02 E0= -.16621639E+02  d E =-.421806E-04
       N       E                     dE             d eps       ncg     rms          rms(c)
DAV:   1    -0.166215794849E+02    0.50519E-08   -0.11388E-07  4200   0.658E-04    0.713E-05
RMM:   2    -0.166215794833E+02    0.15640E-08    0.00000E+00   712   0.951E-05
  30 F= -.16621579E+02 E0= -.16621639E+02  d E =-.421712E-04
       N       E                     dE             d eps       ncg     rms          rms(c)
DAV:   1    -0.166215794987E+02   -0.13838E-07   -0.50736E-08  3800   0.442E-04    0.495E-05
RMM:   2    -0.166215794991E+02   -0.39847E-09    0.00000E+00   364   0.720E-05
  31 F= -.16621579E+02 E0= -.16621639E+02  d E =-.421870E-04
       N       E                     dE             d eps       ncg     rms          rms(c)
DAV:   1    -0.166215794953E+02    0.34032E-08   -0.12250E-08  3200   0.222E-04    0.299E-05
RMM:   2    -0.166215794950E+02    0.34709E-09    0.00000E+00   271   0.457E-05
  32 F= -.16621579E+02 E0= -.16621639E+02  d E =-.421828E-04
       N       E                     dE             d eps       ncg     rms          rms(c)
DAV:   1    -0.166215795015E+02   -0.61385E-08   -0.52156E-09  2840   0.146E-04    0.189E-05
RMM:   2    -0.166215795019E+02   -0.42769E-09    0.00000E+00   189   0.322E-05
  33 F= -.16621580E+02 E0= -.16621639E+02  d E =-.421897E-04
       N       E                     dE             d eps       ncg     rms          rms(c)
DAV:   1    -0.166215794987E+02    0.28052E-08   -0.10398E-09  2200   0.710E-05    0.110E-05
RMM:   2    -0.166215794990E+02   -0.35061E-09    0.00000E+00   109   0.187E-05
  34 F= -.16621579E+02 E0= -.16621639E+02  d E =-.421869E-04
       N       E                     dE             d eps       ncg     rms          rms(c)
DAV:   1    -0.166215795011E+02   -0.24557E-08   -0.32962E-10  1640   0.460E-05    0.721E-06
RMM:   2    -0.166215795013E+02   -0.13813E-09    0.00000E+00    92   0.152E-05
  35 F= -.16621580E+02 E0= -.16621639E+02  d E =-.421891E-04
       N       E                     dE             d eps       ncg     rms          rms(c)
DAV:   1    -0.166215795020E+02   -0.85504E-09    0.15110E-11  2000   0.294E-05    0.519E-06
RMM:   2    -0.166215795024E+02   -0.37608E-09    0.00000E+00    82   0.966E-06
  36 F= -.16621580E+02 E0= -.16621639E+02  d E =-.421902E-04
       N       E                     dE             d eps       ncg     rms          rms(c)
DAV:   1    -0.166215795026E+02   -0.61732E-09    0.16388E-10  1560   0.107E-05    0.337E-06
RMM:   2    -0.166215795028E+02   -0.22965E-09    0.00000E+00    35   0.436E-06
  37 F= -.16621580E+02 E0= -.16621639E+02  d E =-.421907E-04
       N       E                     dE             d eps       ncg     rms          rms(c)
DAV:   1    -0.166215795025E+02    0.15314E-09    0.17828E-10  1560   0.430E-06    0.821E-07
RMM:   2    -0.166215795026E+02   -0.12847E-09    0.00000E+00    39   0.172E-06
  38 F= -.16621580E+02 E0= -.16621639E+02  d E =-.421904E-04
       N       E                     dE             d eps       ncg     rms          rms(c)
DAV:   1    -0.166215284816E+02    0.51021E-04   -0.99268E-03  2880   0.195E-01    0.162E-02
RMM:   2    -0.166215370089E+02   -0.85274E-05   -0.10599E-04  2880   0.302E-02    0.649E-03
RMM:   3    -0.166215372208E+02   -0.21184E-06   -0.24544E-06  2649   0.522E-03
  39 F= -.16621537E+02 E0= -.16621589E+02  d E =0.913884E-07
