 vasp.5.4.4.18Apr17-6-g9f103f2a35 (build Aug 08 2019 15:41:39) complex          
  
 executed on             LinuxIFC date 2020.11.28  00:40:30
 running on   40 total cores
 distrk:  each k-point on   40 cores,    1 groups
 distr:  one band on NCORES_PER_BAND=   1 cores,   40 groups


--------------------------------------------------------------------------------------------------------


 INCAR:
 POTCAR:    PAW_PBE Ge 05Jan2001                  
 POTCAR:    PAW_PBE Se 06Sep2000                  

 ----------------------------------------------------------------------------- 
|                                                                             |
|           W    W    AA    RRRRR   N    N  II  N    N   GGGG   !!!           |
|           W    W   A  A   R    R  NN   N  II  NN   N  G    G  !!!           |
|           W    W  A    A  R    R  N N  N  II  N N  N  G       !!!           |
|           W WW W  AAAAAA  RRRRR   N  N N  II  N  N N  G  GGG   !            |
|           WW  WW  A    A  R   R   N   NN  II  N   NN  G    G                |
|           W    W  A    A  R    R  N    N  II  N    N   GGGG   !!!           |
|                                                                             |
|      For optimal performance we recommend to set                            |
|        NCORE= 4 - approx SQRT( number of cores)                             |
|      NCORE specifies how many cores store one orbital (NPAR=cpu/NCORE).     |
|      This setting can  greatly improve the performance of VASP for DFT.     |
|      The default,   NCORE=1            might be grossly inefficient         |
|      on modern multi-core architectures or massively parallel machines.     |
|      Do your own testing !!!!                                               |
|      Unfortunately you need to use the default for GW and RPA calculations. |
|      (for HF NCORE is supported but not extensively tested yet)             |
|                                                                             |
 ----------------------------------------------------------------------------- 

 POTCAR:    PAW_PBE Ge 05Jan2001                  
   VRHFIN =Ge: s2p2                                                             
   LEXCH  = PE                                                                  
   EATOM  =   104.9960 eV,    7.7170 Ry                                         
                                                                                
   TITEL  = PAW_PBE Ge 05Jan2001                                                
   LULTRA =        F    use ultrasoft PP ?                                      
   IUNSCR =        1    unscreen: 0-lin 1-nonlin 2-no                           
   RPACOR =    2.170    partial core radius                                     
   POMASS =   72.610; ZVAL   =    4.000    mass and valenz                      
   RCORE  =    2.300    outmost cutoff radius                                   
   RWIGS  =    2.300; RWIGS  =    1.217    wigner-seitz radius (au A)           
   ENMAX  =  173.807; ENMIN  =  130.355 eV                                      
   ICORE  =        3    local potential                                         
   LCOR   =        T    correct aug charges                                     
   LPAW   =        T    paw PP                                                  
   EAUG   =  385.843                                                            
   DEXC   =    0.000                                                            
   RMAX   =    2.342    core radius for proj-oper                               
   RAUG   =    1.300    factor for augmentation sphere                          
   RDEP   =    2.318    radius for radial grids                                 
   RDEPT  =    2.103    core radius for aug-charge                              
                                                                                
   Atomic configuration                                                         
   10 entries                                                                   
     n  l   j            E        occ.                                          
     1  0  0.50    -10959.8463   2.0000                                         
     2  0  0.50     -1371.6056   2.0000                                         
     2  1  1.50     -1198.4791   6.0000                                         
     3  0  0.50      -168.4733   2.0000                                         
     3  1  1.50      -115.6019   6.0000                                         
     3  2  2.50       -29.3106  10.0000                                         
     4  0  0.50       -11.7309   2.0000                                         
     4  1  0.50        -3.8952   2.0000                                         
     4  2  1.50        -4.0817   0.0000                                         
     4  3  2.50        -4.0817   0.0000                                         
   Description                                                                  
     l       E           TYP  RCUT    TYP  RCUT                                 
     0    -11.7309493     23  2.300                                             
     0     -7.4578696     23  2.300                                             
     1     -3.8952261     23  2.300                                             
     1      6.1178114     23  2.300                                             
     2     -4.0817478     23  2.300                                             
     3     -1.3605826      7  2.300                                             
  local pseudopotential read in
  partial core-charges read in
  partial kinetic energy density read in
  atomic valenz-charges read in
  non local Contribution for L=           0  read in
    real space projection operators read in
  non local Contribution for L=           0  read in
    real space projection operators read in
  non local Contribution for L=           1  read in
    real space projection operators read in
  non local Contribution for L=           1  read in
    real space projection operators read in
  non local Contribution for L=           2  read in
    real space projection operators read in
    PAW grid and wavefunctions read in
 
   number of l-projection  operators is LMAX  =           5
   number of lm-projection operators is LMMAX =          13
 
 POTCAR:    PAW_PBE Se 06Sep2000                  
   VRHFIN =Se: s2p4                                                             
   LEXCH  = PE                                                                  
   EATOM  =   257.1286 eV,   18.8984 Ry                                         
                                                                                
   TITEL  = PAW_PBE Se 06Sep2000                                                
   LULTRA =        F    use ultrasoft PP ?                                      
   IUNSCR =        1    unscreen: 0-lin 1-nonlin 2-no                           
   RPACOR =    1.900    partial core radius                                     
   POMASS =   78.960; ZVAL   =    6.000    mass and valenz                      
   RCORE  =    2.100    outmost cutoff radius                                   
   RWIGS  =    2.200; RWIGS  =    1.164    wigner-seitz radius (au A)           
   ENMAX  =  211.555; ENMIN  =  158.666 eV                                      
   ICORE  =        3    local potential                                         
   LCOR   =        T    correct aug charges                                     
   LPAW   =        T    paw PP                                                  
   EAUG   =  446.842                                                            
   DEXC   =    0.000                                                            
   RMAX   =    2.147    core radius for proj-oper                               
   RAUG   =    1.300    factor for augmentation sphere                          
   RDEP   =    2.177    radius for radial grids                                 
   RDEPT  =    1.928    core radius for aug-charge                              
                                                                                
   Atomic configuration                                                         
   10 entries                                                                   
     n  l   j            E        occ.                                          
     1  0  0.50    -12503.4787   2.0000                                         
     2  0  0.50     -1606.9547   2.0000                                         
     2  1  1.50     -1413.3140   6.0000                                         
     3  0  0.50      -213.4885   2.0000                                         
     3  1  1.50      -152.9538   6.0000                                         
     3  2  2.50       -53.1221  10.0000                                         
     4  0  0.50       -17.2865   2.0000                                         
     4  1  0.50        -6.5110   4.0000                                         
     4  2  2.50        -6.8029   0.0000                                         
     4  3  2.50        -6.8029   0.0000                                         
   Description                                                                  
     l       E           TYP  RCUT    TYP  RCUT                                 
     0    -17.2865377     23  2.100                                             
     0    -15.3094411     23  2.100                                             
     1     -6.5110275     23  2.100                                             
     1     -0.0695192     23  2.100                                             
     2     -6.8029130     23  2.100                                             
     3     -1.3605826      7  2.100                                             
  local pseudopotential read in
  partial core-charges read in
  partial kinetic energy density read in
  atomic valenz-charges read in
  non local Contribution for L=           0  read in
    real space projection operators read in
  non local Contribution for L=           0  read in
    real space projection operators read in
  non local Contribution for L=           1  read in
    real space projection operators read in
  non local Contribution for L=           1  read in
    real space projection operators read in
  non local Contribution for L=           2  read in
    real space projection operators read in
    PAW grid and wavefunctions read in
 
   number of l-projection  operators is LMAX  =           5
   number of lm-projection operators is LMMAX =          13
 

 ----------------------------------------------------------------------------- 
|                                                                             |
|  ADVICE TO THIS USER RUNNING 'VASP/VAMP'   (HEAR YOUR MASTER'S VOICE ...):  |
|                                                                             |
|      You have a (more or less) 'small supercell' and for smaller cells      |
|      it is recommended  to use the reciprocal-space projection scheme!      |
|      The real space optimization is not  efficient for small cells and it   |
|      is also less accurate ...                                              |
|      Therefore set LREAL=.FALSE. in the  INCAR file                         |
|                                                                             |
 ----------------------------------------------------------------------------- 

 Optimization of the real space projectors (new method)

 maximal supplied QI-value         = 16.25
 optimisation between [QCUT,QGAM] = [ 10.24, 25.52] = [ 29.35,182.30] Ry 
 Optimized for a Real-space Cutoff    1.24 Angstroem

   l    n(q)    QCUT    max X(q) W(low)/X(q) W(high)/X(q)  e(spline) 
   0      9    10.239    65.336    0.17E-03    0.45E-04    0.53E-06
   0      9    10.239    52.220    0.17E-03    0.45E-04    0.53E-06
   1      9    10.239    36.409    0.23E-03    0.38E-03    0.27E-06
   1      9    10.239    21.334    0.22E-03    0.37E-03    0.27E-06
   2      9    10.239     4.673    0.23E-03    0.11E-03    0.31E-06
 Optimization of the real space projectors (new method)

 maximal supplied QI-value         = 17.95
 optimisation between [QCUT,QGAM] = [ 10.23, 25.49] = [ 29.32,181.98] Ry 
 Optimized for a Real-space Cutoff    1.17 Angstroem

   l    n(q)    QCUT    max X(q) W(low)/X(q) W(high)/X(q)  e(spline) 
   0      9    10.233   133.320    0.73E-04    0.11E-03    0.69E-07
   0      9    10.233   111.601    0.76E-04    0.11E-03    0.72E-07
   1      8    10.233    47.222    0.17E-03    0.15E-03    0.30E-06
   1      8    10.233    33.775    0.17E-03    0.14E-03    0.30E-06
   2      8    10.233     3.720    0.69E-04    0.12E-03    0.42E-07
  PAW_PBE Ge 05Jan2001                  :
 energy of atom  1       EATOM= -104.9960
 kinetic energy error for atom=    0.0003 (will be added to EATOM!!)
  PAW_PBE Se 06Sep2000                  :
 energy of atom  2       EATOM= -257.1286
 kinetic energy error for atom=    0.0020 (will be added to EATOM!!)
 
 
 POSCAR: GeSe-monoL                              
  positions in direct lattice
  No initial velocities read in
 exchange correlation table for  LEXCH =        8
   RHO(1)=    0.500       N(1)  =     2000
   RHO(2)=  100.500       N(2)  =     4000
 


--------------------------------------------------------------------------------------------------------


 ion  position               nearest neighbor table
   1  0.250  0.098  0.456-   4 2.55
   2  0.750  0.598  0.544-   3 2.55
   3  0.750  0.515  0.453-   2 2.55
   4  0.250  0.015  0.547-   1 2.55
 
  LATTYP: Found a simple orthorhombic cell.
 ALAT       =     4.2631170304
 B/A-ratio  =     1.0689198698
 C/A-ratio  =     6.5176095687
  
  Lattice vectors:
  
 A1 = (   4.2631170304,   0.0000000000,   0.0000000000)
 A2 = (   0.0000000000,   4.5569305013,   0.0000000000)
 A3 = (   0.0000000000,   0.0000000000,  27.7853323500)


Analysis of symmetry for initial positions (statically):
=====================================================================
 Subroutine PRICEL returns:
 Original cell was already a primitive cell.
 

 Routine SETGRP: Setting up the symmetry group for a 
 simple orthorhombic supercell.


 Subroutine GETGRP returns: Found  4 space group operations
 (whereof  1 operations were pure point group operations)
 out of a pool of  8 trial point group operations.


The static configuration has the point symmetry C_1 .
 The point group associated with its full space group is C_2v.


Analysis of symmetry for dynamics (positions and initial velocities):
=====================================================================
 Subroutine PRICEL returns:
 Original cell was already a primitive cell.
 

 Routine SETGRP: Setting up the symmetry group for a 
 simple orthorhombic supercell.


 Subroutine GETGRP returns: Found  4 space group operations
 (whereof  1 operations were pure point group operations)
 out of a pool of  8 trial point group operations.


The dynamic configuration has the point symmetry C_1 .
 The point group associated with its full space group is C_2v.


 Subroutine INISYM returns: Found  4 space group operations
 (whereof  1 operations are pure point group operations),
 and found     1 'primitive' translations

 
 
 KPOINTS: Automatic mesh                          

Automatic generation of k-mesh.
Space group operators:
 irot       det(A)        alpha          n_x          n_y          n_z        tau_x        tau_y        tau_z
    1     1.000000     0.000000     1.000000     0.000000     0.000000     0.000000     0.000000     0.000000
    2    -1.000000   179.999999     0.000000     0.000000     1.000000     0.500000     0.500000     0.000000
    3     1.000000   180.000000     0.000000     1.000000     0.000000     0.000000     0.500000     0.000000
    4    -1.000000   180.000000     1.000000     0.000000     0.000000     0.500000     0.000000     0.000000
 
 Subroutine IBZKPT returns following result:
 ===========================================
 
 Found     36 irreducible k-points:
 
 Following reciprocal coordinates:
            Coordinates               Weight
  0.000000  0.000000  0.000000      1.000000
  0.100000  0.000000  0.000000      2.000000
  0.200000  0.000000  0.000000      2.000000
  0.300000  0.000000  0.000000      2.000000
  0.400000  0.000000  0.000000      2.000000
  0.500000  0.000000  0.000000      1.000000
  0.000000  0.100000  0.000000      2.000000
  0.100000  0.100000  0.000000      4.000000
  0.200000  0.100000  0.000000      4.000000
  0.300000  0.100000  0.000000      4.000000
  0.400000  0.100000  0.000000      4.000000
  0.500000  0.100000  0.000000      2.000000
  0.000000  0.200000  0.000000      2.000000
  0.100000  0.200000  0.000000      4.000000
  0.200000  0.200000  0.000000      4.000000
  0.300000  0.200000  0.000000      4.000000
  0.400000  0.200000  0.000000      4.000000
  0.500000  0.200000  0.000000      2.000000
  0.000000  0.300000  0.000000      2.000000
  0.100000  0.300000  0.000000      4.000000
  0.200000  0.300000  0.000000      4.000000
  0.300000  0.300000  0.000000      4.000000
  0.400000  0.300000  0.000000      4.000000
  0.500000  0.300000  0.000000      2.000000
  0.000000  0.400000  0.000000      2.000000
  0.100000  0.400000  0.000000      4.000000
  0.200000  0.400000  0.000000      4.000000
  0.300000  0.400000  0.000000      4.000000
  0.400000  0.400000  0.000000      4.000000
  0.500000  0.400000  0.000000      2.000000
  0.000000  0.500000  0.000000      1.000000
  0.100000  0.500000  0.000000      2.000000
  0.200000  0.500000  0.000000      2.000000
  0.300000  0.500000  0.000000      2.000000
  0.400000  0.500000  0.000000      2.000000
  0.500000  0.500000  0.000000      1.000000
 
 Following cartesian coordinates:
            Coordinates               Weight
  0.000000  0.000000  0.000000      1.000000
  0.023457  0.000000  0.000000      2.000000
  0.046914  0.000000  0.000000      2.000000
  0.070371  0.000000  0.000000      2.000000
  0.093828  0.000000  0.000000      2.000000
  0.117285  0.000000  0.000000      1.000000
  0.000000  0.021945  0.000000      2.000000
  0.023457  0.021945  0.000000      4.000000
  0.046914  0.021945  0.000000      4.000000
  0.070371  0.021945  0.000000      4.000000
  0.093828  0.021945  0.000000      4.000000
  0.117285  0.021945  0.000000      2.000000
  0.000000  0.043889  0.000000      2.000000
  0.023457  0.043889  0.000000      4.000000
  0.046914  0.043889  0.000000      4.000000
  0.070371  0.043889  0.000000      4.000000
  0.093828  0.043889  0.000000      4.000000
  0.117285  0.043889  0.000000      2.000000
  0.000000  0.065834  0.000000      2.000000
  0.023457  0.065834  0.000000      4.000000
  0.046914  0.065834  0.000000      4.000000
  0.070371  0.065834  0.000000      4.000000
  0.093828  0.065834  0.000000      4.000000
  0.117285  0.065834  0.000000      2.000000
  0.000000  0.087778  0.000000      2.000000
  0.023457  0.087778  0.000000      4.000000
  0.046914  0.087778  0.000000      4.000000
  0.070371  0.087778  0.000000      4.000000
  0.093828  0.087778  0.000000      4.000000
  0.117285  0.087778  0.000000      2.000000
  0.000000  0.109723  0.000000      1.000000
  0.023457  0.109723  0.000000      2.000000
  0.046914  0.109723  0.000000      2.000000
  0.070371  0.109723  0.000000      2.000000
  0.093828  0.109723  0.000000      2.000000
  0.117285  0.109723  0.000000      1.000000
 


--------------------------------------------------------------------------------------------------------




 Dimension of arrays:
   k-points           NKPTS =     36   k-points in BZ     NKDIM =     36   number of bands    NBANDS=     40
   number of dos      NEDOS =    301   number of ions     NIONS =      4
   non local maximal  LDIM  =      5   non local SUM 2l+1 LMDIM =     13
   total plane-waves  NPLWV = 161280
   max r-space proj   IRMAX =   2453   max aug-charges    IRDMAX=   5612
   dimension x,y,z NGX =    28 NGY =   30 NGZ =  192
   dimension x,y,z NGXF=    40 NGYF=   42 NGZF=  256
   support grid    NGXF=    40 NGYF=   42 NGZF=  256
   ions per type =               2   2
   NGX,Y,Z   is equivalent  to a cutoff of  10.92, 10.94, 11.49 a.u.
   NGXF,Y,Z  is equivalent  to a cutoff of  15.60, 15.32, 15.32 a.u.

 SYSTEM =  GeSe-monoL                              
 POSCAR =  GeSe-monoL                              

 Startparameter for this run:
   NWRITE =      2    write-flag & timer
   PREC   = high      normal or accurate (medium, high low for compatibility)
   ISTART =      0    job   : 0-new  1-cont  2-samecut
   ICHARG =      2    charge: 1-file 2-atom 10-const
   ISPIN  =      1    spin polarized calculation?
   LNONCOLLINEAR =      F non collinear calculations
   LSORBIT =      F    spin-orbit coupling
   INIWAV =      1    electr: 0-lowe 1-rand  2-diag
   LASPH  =      F    aspherical Exc in radial PAW
   METAGGA=      F    non-selfconsistent MetaGGA calc.

 Electronic Relaxation 1
   ENCUT  =  400.0 eV  29.40 Ry    5.42 a.u.   6.95  7.43 45.31*2*pi/ulx,y,z
   ENINI  =  400.0     initial cutoff
   ENAUG  =  446.8 eV  augmentation charge cutoff
   NELM   =     60;   NELMIN=  2; NELMDL= -5     # of ELM steps 
   EDIFF  = 0.1E-05   stopping-criterion for ELM
   LREAL  =      T    real-space projection
   NLSPLINE    = F    spline interpolate recip. space projectors
   LCOMPAT=      F    compatible to vasp.4.4
   GGA_COMPAT  = T    GGA compatible to vasp.4.4-vasp.4.6
   LMAXPAW     = -100 max onsite density
   LMAXMIX     =    4 max onsite mixed and CHGCAR
   VOSKOWN=      0    Vosko Wilk Nusair interpolation
   ROPT   =   -0.00040  -0.00040
 Ionic relaxation
   EDIFFG = -.5E-02   stopping-criterion for IOM
   NSW    =    200    number of steps for IOM
   NBLOCK =      1;   KBLOCK =    200    inner block; outer block 
   IBRION =      2    ionic relax: 0-MD 1-quasi-New 2-CG
   NFREE  =      1    steps in history (QN), initial steepest desc. (CG)
   ISIF   =      2    stress and relaxation
   IWAVPR =     11    prediction:  0-non 1-charg 2-wave 3-comb
   ISYM   =      2    0-nonsym 1-usesym 2-fastsym
   LCORR  =      T    Harris-Foulkes like correction to forces

   POTIM  = 0.5000    time-step for ionic-motion
   TEIN   =    0.0    initial temperature
   TEBEG  =  300.0;   TEEND  = 300.0 temperature during run
   SMASS  =  -3.00    Nose mass-parameter (am)
   estimated Nose-frequenzy (Omega)   =  0.10E-29 period in steps =****** mass=  -0.415E-27a.u.
   SCALEE = 1.0000    scale energy and forces
   NPACO  =    256;   APACO  = 16.0  distance and # of slots for P.C.
   PSTRESS=    0.0 pullay stress

  Mass of Ions in am
   POMASS =  72.61 78.96
  Ionic Valenz
   ZVAL   =   4.00  6.00
  Atomic Wigner-Seitz radii
   RWIGS  =  -1.00 -1.00
  virtual crystal weights 
   VCA    =   1.00  1.00
   NELECT =      20.0000    total number of electrons
   NUPDOWN=      -1.0000    fix difference up-down

 DOS related values:
   EMIN   =  10.00;   EMAX   =-10.00  energy-range for DOS
   EFERMI =   0.00
   ISMEAR =     1;   SIGMA  =   0.05  broadening in eV -4-tet -1-fermi 0-gaus

 Electronic relaxation 2 (details)
   IALGO  =     68    algorithm
   LDIAG  =      T    sub-space diagonalisation (order eigenvalues)
   LSUBROT=      F    optimize rotation matrix (better conditioning)
   TURBO    =      0    0=normal 1=particle mesh
   IRESTART =      0    0=no restart 2=restart with 2 vectors
   NREBOOT  =      0    no. of reboots
   NMIN     =      0    reboot dimension
   EREF     =   0.00    reference energy to select bands
   IMIX   =      4    mixing-type and parameters
     AMIX     =   0.40;   BMIX     =  1.00
     AMIX_MAG =   1.60;   BMIX_MAG =  1.00
     AMIN     =   0.10
     WC   =   100.;   INIMIX=   1;  MIXPRE=   1;  MAXMIX= -45

 Intra band minimization:
   WEIMIN = 0.0010     energy-eigenvalue tresh-hold
   EBREAK =  0.62E-08  absolut break condition
   DEPER  =   0.30     relativ break condition  

   TIME   =   0.40     timestep for ELM

  volume/ion in A,a.u.               =     134.94       910.65
  Fermi-wavevector in a.u.,A,eV,Ry     =   0.545774  1.031364  4.052762  0.297870
  Thomas-Fermi vector in A             =   1.575290
 
 Write flags
   LWAVE        =      T    write WAVECAR
   LDOWNSAMPLE  =      F    k-point downsampling of WAVECAR
   LCHARG       =      T    write CHGCAR
   LVTOT        =      F    write LOCPOT, total local potential
   LVHAR        =      F    write LOCPOT, Hartree potential only
   LELF         =      F    write electronic localiz. function (ELF)
   LORBIT       =      0    0 simple, 1 ext, 2 COOP (PROOUT), +10 PAW based schemes


 Dipole corrections
   LMONO  =      F    monopole corrections only (constant potential shift)
   LDIPOL =      F    correct potential (dipole corrections)
   IDIPOL =      0    1-x, 2-y, 3-z, 4-all directions 
   EPSILON=  1.0000000 bulk dielectric constant

 Exchange correlation treatment:
   GGA     =    --    GGA type
   LEXCH   =     8    internal setting for exchange type
   VOSKOWN=      0    Vosko Wilk Nusair interpolation
   LHFCALC =     F    Hartree Fock is set to
   LHFONE  =     F    Hartree Fock one center treatment
   AEXX    =    0.0000 exact exchange contribution

 Linear response parameters
   LEPSILON=     F    determine dielectric tensor
   LRPA    =     F    only Hartree local field effects (RPA)
   LNABLA  =     F    use nabla operator in PAW spheres
   LVEL    =     F    velocity operator in full k-point grid
   LINTERFAST=   F  fast interpolation
   KINTER  =     0    interpolate to denser k-point grid
   CSHIFT  =0.1000    complex shift for real part using Kramers Kronig
   OMEGAMAX=  -1.0    maximum frequency
   DEG_THRESHOLD= 0.2000000E-02 threshold for treating states as degnerate
   RTIME   =   -0.100 relaxation time in fs
  (WPLASMAI=    0.000 imaginary part of plasma frequency in eV, 0.658/RTIME)
   DFIELD  = 0.0000000 0.0000000 0.0000000 field for delta impulse in time
 
 Orbital magnetization related:
   ORBITALMAG=     F  switch on orbital magnetization
   LCHIMAG   =     F  perturbation theory with respect to B field
   DQ        =  0.001000  dq finite difference perturbation B field
   LLRAUG    =     F  two centre corrections for induced B field



--------------------------------------------------------------------------------------------------------


 conjugate gradient relaxation of ions
 charge density and potential will be updated during run
 non-spin polarized calculation
 RMM-DIIS sequential band-by-band and
  variant of blocked Davidson during initial phase
 perform sub-space diagonalisation
    before iterative eigenvector-optimisation
 modified Broyden-mixing scheme, WC =      100.0
 initial mixing is a Kerker type mixing with AMIX =  0.4000 and BMIX =      1.0000
 Hartree-type preconditioning will be used
 using additional bands           30
 real space projection scheme for non local part
 use partial core corrections
 calculate Harris-corrections to forces 
   (improved forces if not selfconsistent)
 use gradient corrections 
 use of overlap-Matrix (Vanderbilt PP)
 Methfessel and Paxton  Order N= 1 SIGMA  =   0.05


--------------------------------------------------------------------------------------------------------


  energy-cutoff  :      400.00
  volume of cell :      539.78
      direct lattice vectors                 reciprocal lattice vectors
     4.263117030  0.000000000  0.000000000     0.234570150  0.000000000  0.000000000
     0.000000000  4.556930501  0.000000000     0.000000000  0.219445963  0.000000000
     0.000000000  0.000000000 27.785332350     0.000000000  0.000000000  0.035990212

  length of vectors
     4.263117030  4.556930501 27.785332350     0.234570150  0.219445963  0.035990212


 
 k-points in units of 2pi/SCALE and weight: Automatic mesh                          
   0.00000000  0.00000000  0.00000000       0.010
   0.02345701  0.00000000  0.00000000       0.020
   0.04691403  0.00000000  0.00000000       0.020
   0.07037104  0.00000000  0.00000000       0.020
   0.09382806  0.00000000  0.00000000       0.020
   0.11728507  0.00000000  0.00000000       0.010
   0.00000000  0.02194460  0.00000000       0.020
   0.02345701  0.02194460  0.00000000       0.040
   0.04691403  0.02194460  0.00000000       0.040
   0.07037104  0.02194460  0.00000000       0.040
   0.09382806  0.02194460  0.00000000       0.040
   0.11728507  0.02194460  0.00000000       0.020
   0.00000000  0.04388919  0.00000000       0.020
   0.02345701  0.04388919  0.00000000       0.040
   0.04691403  0.04388919  0.00000000       0.040
   0.07037104  0.04388919  0.00000000       0.040
   0.09382806  0.04388919  0.00000000       0.040
   0.11728507  0.04388919  0.00000000       0.020
   0.00000000  0.06583379  0.00000000       0.020
   0.02345701  0.06583379  0.00000000       0.040
   0.04691403  0.06583379  0.00000000       0.040
   0.07037104  0.06583379  0.00000000       0.040
   0.09382806  0.06583379  0.00000000       0.040
   0.11728507  0.06583379  0.00000000       0.020
   0.00000000  0.08777839  0.00000000       0.020
   0.02345701  0.08777839  0.00000000       0.040
   0.04691403  0.08777839  0.00000000       0.040
   0.07037104  0.08777839  0.00000000       0.040
   0.09382806  0.08777839  0.00000000       0.040
   0.11728507  0.08777839  0.00000000       0.020
   0.00000000  0.10972298  0.00000000       0.010
   0.02345701  0.10972298  0.00000000       0.020
   0.04691403  0.10972298  0.00000000       0.020
   0.07037104  0.10972298  0.00000000       0.020
   0.09382806  0.10972298  0.00000000       0.020
   0.11728507  0.10972298  0.00000000       0.010
 
 k-points in reciprocal lattice and weights: Automatic mesh                          
   0.00000000  0.00000000  0.00000000       0.010
   0.10000000  0.00000000  0.00000000       0.020
   0.20000000  0.00000000  0.00000000       0.020
   0.30000000  0.00000000  0.00000000       0.020
   0.40000000  0.00000000  0.00000000       0.020
   0.50000000  0.00000000  0.00000000       0.010
   0.00000000  0.10000000  0.00000000       0.020
   0.10000000  0.10000000  0.00000000       0.040
   0.20000000  0.10000000  0.00000000       0.040
   0.30000000  0.10000000  0.00000000       0.040
   0.40000000  0.10000000  0.00000000       0.040
   0.50000000  0.10000000  0.00000000       0.020
   0.00000000  0.20000000  0.00000000       0.020
   0.10000000  0.20000000  0.00000000       0.040
   0.20000000  0.20000000  0.00000000       0.040
   0.30000000  0.20000000  0.00000000       0.040
   0.40000000  0.20000000  0.00000000       0.040
   0.50000000  0.20000000  0.00000000       0.020
   0.00000000  0.30000000  0.00000000       0.020
   0.10000000  0.30000000  0.00000000       0.040
   0.20000000  0.30000000  0.00000000       0.040
   0.30000000  0.30000000  0.00000000       0.040
   0.40000000  0.30000000  0.00000000       0.040
   0.50000000  0.30000000  0.00000000       0.020
   0.00000000  0.40000000  0.00000000       0.020
   0.10000000  0.40000000  0.00000000       0.040
   0.20000000  0.40000000  0.00000000       0.040
   0.30000000  0.40000000  0.00000000       0.040
   0.40000000  0.40000000  0.00000000       0.040
   0.50000000  0.40000000  0.00000000       0.020
   0.00000000  0.50000000  0.00000000       0.010
   0.10000000  0.50000000  0.00000000       0.020
   0.20000000  0.50000000  0.00000000       0.020
   0.30000000  0.50000000  0.00000000       0.020
   0.40000000  0.50000000  0.00000000       0.020
   0.50000000  0.50000000  0.00000000       0.010
 
 position of ions in fractional coordinates (direct lattice) 
   0.25000000  0.09787674  0.45639123
   0.75000000  0.59787674  0.54360877
   0.75000000  0.51512026  0.45294806
   0.25000000  0.01512026  0.54705194
 
 position of ions in cartesian coordinates  (Angst):
   1.06577926  0.44601752 12.68098187
   3.19733777  2.72448277 15.10435048
   3.19733777  2.34736720 12.58531250
   1.06577926  0.06890195 15.20001985
 


--------------------------------------------------------------------------------------------------------


 k-point  1 :   0.0000 0.0000 0.0000  plane waves:    9777
 k-point  2 :   0.1000 0.0000 0.0000  plane waves:    9792
 k-point  3 :   0.2000 0.0000 0.0000  plane waves:    9844
 k-point  4 :   0.3000 0.0000 0.0000  plane waves:    9824
 k-point  5 :   0.4000 0.0000 0.0000  plane waves:    9834
 k-point  6 :   0.5000 0.0000 0.0000  plane waves:    9854
 k-point  7 :   0.0000 0.1000 0.0000  plane waves:    9767
 k-point  8 :   0.1000 0.1000 0.0000  plane waves:    9785
 k-point  9 :   0.2000 0.1000 0.0000  plane waves:    9818
 k-point 10 :   0.3000 0.1000 0.0000  plane waves:    9846
 k-point 11 :   0.4000 0.1000 0.0000  plane waves:    9852
 k-point 12 :   0.5000 0.1000 0.0000  plane waves:    9864
 k-point 13 :   0.0000 0.2000 0.0000  plane waves:    9747
 k-point 14 :   0.1000 0.2000 0.0000  plane waves:    9781
 k-point 15 :   0.2000 0.2000 0.0000  plane waves:    9812
 k-point 16 :   0.3000 0.2000 0.0000  plane waves:    9844
 k-point 17 :   0.4000 0.2000 0.0000  plane waves:    9857
 k-point 18 :   0.5000 0.2000 0.0000  plane waves:    9840
 k-point 19 :   0.0000 0.3000 0.0000  plane waves:    9785
 k-point 20 :   0.1000 0.3000 0.0000  plane waves:    9783
 k-point 21 :   0.2000 0.3000 0.0000  plane waves:    9797
 k-point 22 :   0.3000 0.3000 0.0000  plane waves:    9823
 k-point 23 :   0.4000 0.3000 0.0000  plane waves:    9824
 k-point 24 :   0.5000 0.3000 0.0000  plane waves:    9814
 k-point 25 :   0.0000 0.4000 0.0000  plane waves:    9769
 k-point 26 :   0.1000 0.4000 0.0000  plane waves:    9770
 k-point 27 :   0.2000 0.4000 0.0000  plane waves:    9753
 k-point 28 :   0.3000 0.4000 0.0000  plane waves:    9803
 k-point 29 :   0.4000 0.4000 0.0000  plane waves:    9791
 k-point 30 :   0.5000 0.4000 0.0000  plane waves:    9814
 k-point 31 :   0.0000 0.5000 0.0000  plane waves:    9738
 k-point 32 :   0.1000 0.5000 0.0000  plane waves:    9772
 k-point 33 :   0.2000 0.5000 0.0000  plane waves:    9776
 k-point 34 :   0.3000 0.5000 0.0000  plane waves:    9772
 k-point 35 :   0.4000 0.5000 0.0000  plane waves:    9772
 k-point 36 :   0.5000 0.5000 0.0000  plane waves:    9804

 maximum and minimum number of plane-waves per node :      9864     9738

 maximum number of plane-waves:      9864
 maximum index in each direction: 
   IXMAX=    6   IYMAX=    7   IZMAX=   45
   IXMIN=   -7   IYMIN=   -7   IZMIN=  -45


 serial   3D FFT for wavefunctions
 parallel 3D FFT for charge:
    minimum data exchange during FFTs selected (reduces bandwidth)


 total amount of memory used by VASP MPI-rank0    45211. kBytes
=======================================================================

   base      :      30000. kBytes
   nonlr-proj:       1137. kBytes
   fftplans  :       2113. kBytes
   grid      :       6193. kBytes
   one-center:         32. kBytes
   wavefun   :       5736. kBytes
 
     INWAV:  cpu time    0.0000: real time    0.0000
 Broyden mixing: mesh for mixing (old mesh)
   NGX = 13   NGY = 15   NGZ = 91
  (NGX  = 40   NGY  = 42   NGZ  =256)
  gives a total of  17745 points

 initial charge density was supplied:
 charge density of overlapping atoms calculated
 number of electron      20.0000000 magnetization 
 keeping initial charge density in first step


--------------------------------------------------------------------------------------------------------


 Maximum index for non-local projection operator         2323
 Maximum index for augmentation-charges           60 (set IRDMAX)


--------------------------------------------------------------------------------------------------------


 First call to EWALD:  gamma=   0.218
 Maximum number of real-space cells 5x 5x 1
 Maximum number of reciprocal cells 2x 2x 8

    FEWALD:  cpu time    0.0010: real time    0.0019


--------------------------------------- Iteration      1(   1)  ---------------------------------------


    POTLOK:  cpu time    0.0230: real time    0.0242
    SETDIJ:  cpu time    0.0030: real time    0.0033
     EDDAV:  cpu time    1.7727: real time    1.7830
       DOS:  cpu time    0.0020: real time    0.0018
    --------------------------------------------
      LOOP:  cpu time    1.8007: real time    1.8123

 eigenvalue-minimisations  :  2880
 total energy-change (2. order) : 0.7688198E+02  (-0.5525471E+03)
 number of electron      20.0000000 magnetization 
 augmentation part       20.0000000 magnetization 

 Free energy of the ion-electron system (eV)
  ---------------------------------------------------
  alpha Z        PSCENC =         7.84787564
  Ewald energy   TEWEN  =      2331.64741564
  -Hartree energ DENC   =     -2931.36004204
  -exchange      EXHF   =         0.00000000
  -V(xc)+E(xc)   XCENC  =       -18.10939464
  PAW double counting   =       596.89131276     -540.36857022
  entropy T*S    EENTRO =        -0.00128969
  eigenvalues    EBANDS =       -93.90987195
  atomic energy  EATOM  =       724.24454699
  Solvation  Ediel_sol  =         0.00000000
  ---------------------------------------------------
  free energy    TOTEN  =        76.88198250 eV

  energy without entropy =       76.88327219  energy(sigma->0) =       76.88241240


--------------------------------------------------------------------------------------------------------




--------------------------------------- Iteration      1(   2)  ---------------------------------------


     EDDAV:  cpu time    2.8246: real time    2.8268
       DOS:  cpu time    0.0010: real time    0.0010
    --------------------------------------------
      LOOP:  cpu time    2.8256: real time    2.8278

 eigenvalue-minimisations  :  4320
 total energy-change (2. order) :-0.9094707E+02  (-0.8937765E+02)
 number of electron      20.0000000 magnetization 
 augmentation part       20.0000000 magnetization 

 Free energy of the ion-electron system (eV)
  ---------------------------------------------------
  alpha Z        PSCENC =         7.84787564
  Ewald energy   TEWEN  =      2331.64741564
  -Hartree energ DENC   =     -2931.36004204
  -exchange      EXHF   =         0.00000000
  -V(xc)+E(xc)   XCENC  =       -18.10939464
  PAW double counting   =       596.89131276     -540.36857022
  entropy T*S    EENTRO =         0.00020503
  eigenvalues    EBANDS =      -184.85843742
  atomic energy  EATOM  =       724.24454699
  Solvation  Ediel_sol  =         0.00000000
  ---------------------------------------------------
  free energy    TOTEN  =       -14.06508825 eV

  energy without entropy =      -14.06529328  energy(sigma->0) =      -14.06515659


--------------------------------------------------------------------------------------------------------




--------------------------------------- Iteration      1(   3)  ---------------------------------------


     EDDAV:  cpu time    1.8177: real time    1.8185
       DOS:  cpu time    0.0010: real time    0.0010
    --------------------------------------------
      LOOP:  cpu time    1.8187: real time    1.8195

 eigenvalue-minimisations  :  2920
 total energy-change (2. order) :-0.2812153E+01  (-0.2812478E+01)
 number of electron      20.0000000 magnetization 
 augmentation part       20.0000000 magnetization 

 Free energy of the ion-electron system (eV)
  ---------------------------------------------------
  alpha Z        PSCENC =         7.84787564
  Ewald energy   TEWEN  =      2331.64741564
  -Hartree energ DENC   =     -2931.36004204
  -exchange      EXHF   =         0.00000000
  -V(xc)+E(xc)   XCENC  =       -18.10939464
  PAW double counting   =       596.89131276     -540.36857022
  entropy T*S    EENTRO =         0.00005798
  eigenvalues    EBANDS =      -187.67044310
  atomic energy  EATOM  =       724.24454699
  Solvation  Ediel_sol  =         0.00000000
  ---------------------------------------------------
  free energy    TOTEN  =       -16.87724098 eV

  energy without entropy =      -16.87729896  energy(sigma->0) =      -16.87726030


--------------------------------------------------------------------------------------------------------




--------------------------------------- Iteration      1(   4)  ---------------------------------------


     EDDAV:  cpu time    4.3083: real time    4.3082
       DOS:  cpu time    0.0010: real time    0.0010
    --------------------------------------------
      LOOP:  cpu time    4.3093: real time    4.3093

 eigenvalue-minimisations  :  5720
 total energy-change (2. order) :-0.2642078E-01  (-0.2642078E-01)
 number of electron      20.0000000 magnetization 
 augmentation part       20.0000000 magnetization 

 Free energy of the ion-electron system (eV)
  ---------------------------------------------------
  alpha Z        PSCENC =         7.84787564
  Ewald energy   TEWEN  =      2331.64741564
  -Hartree energ DENC   =     -2931.36004204
  -exchange      EXHF   =         0.00000000
  -V(xc)+E(xc)   XCENC  =       -18.10939464
  PAW double counting   =       596.89131276     -540.36857022
  entropy T*S    EENTRO =         0.00005798
  eigenvalues    EBANDS =      -187.69686388
  atomic energy  EATOM  =       724.24454699
  Solvation  Ediel_sol  =         0.00000000
  ---------------------------------------------------
  free energy    TOTEN  =       -16.90366176 eV

  energy without entropy =      -16.90371974  energy(sigma->0) =      -16.90368108


--------------------------------------------------------------------------------------------------------




--------------------------------------- Iteration      1(   5)  ---------------------------------------


     EDDAV:  cpu time    1.8287: real time    1.8312
       DOS:  cpu time    0.0010: real time    0.0010
    CHARGE:  cpu time    0.1440: real time    0.1436
    MIXING:  cpu time    0.0010: real time    0.0013
    --------------------------------------------
      LOOP:  cpu time    1.9747: real time    1.9771

 eigenvalue-minimisations  :  2920
 total energy-change (2. order) :-0.1503289E-05  (-0.1503350E-05)
 number of electron      20.0000001 magnetization 
 augmentation part       -3.7277884 magnetization 

 Broyden mixing:
  rms(total) = 0.41257E+00    rms(broyden)= 0.41256E+00
  rms(prec ) = 0.43273E+00
  weight for this iteration     100.00

 Free energy of the ion-electron system (eV)
  ---------------------------------------------------
  alpha Z        PSCENC =         7.84787564
  Ewald energy   TEWEN  =      2331.64741564
  -Hartree energ DENC   =     -2931.36004204
  -exchange      EXHF   =         0.00000000
  -V(xc)+E(xc)   XCENC  =       -18.10939464
  PAW double counting   =       596.89131276     -540.36857022
  entropy T*S    EENTRO =         0.00005798
  eigenvalues    EBANDS =      -187.69686538
  atomic energy  EATOM  =       724.24454699
  Solvation  Ediel_sol  =         0.00000000
  ---------------------------------------------------
  free energy    TOTEN  =       -16.90366326 eV

  energy without entropy =      -16.90372124  energy(sigma->0) =      -16.90368259


--------------------------------------------------------------------------------------------------------




--------------------------------------- Iteration      1(   6)  ---------------------------------------


    POTLOK:  cpu time    0.0150: real time    0.0147
    SETDIJ:  cpu time    0.0020: real time    0.0025
    EDDIAG:  cpu time    0.5889: real time    0.5926
  RMM-DIIS:  cpu time    0.8729: real time    0.8728
    ORTHCH:  cpu time    0.0480: real time    0.0478
       DOS:  cpu time    0.0000: real time    0.0009
    CHARGE:  cpu time    0.1530: real time    0.1527
    MIXING:  cpu time    0.0020: real time    0.0013
    --------------------------------------------
      LOOP:  cpu time    1.6817: real time    1.6853

 eigenvalue-minimisations  :  2880
 total energy-change (2. order) : 0.3772445E+00  (-0.3791720E-01)
 number of electron      20.0000002 magnetization 
 augmentation part       -3.6834844 magnetization 

 Broyden mixing:
  rms(total) = 0.24867E+00    rms(broyden)= 0.24867E+00
  rms(prec ) = 0.25238E+00
  weight for this iteration     100.00

 eigenvalues of (default mixing * dielectric matrix)
  average eigenvalue GAMMA=   1.5796
  1.5796

 Free energy of the ion-electron system (eV)
  ---------------------------------------------------
  alpha Z        PSCENC =         7.84787564
  Ewald energy   TEWEN  =      2331.64741564
  -Hartree energ DENC   =     -2937.22450449
  -exchange      EXHF   =         0.00000000
  -V(xc)+E(xc)   XCENC  =       -17.73814398
  PAW double counting   =       696.66241416     -640.26961446
  entropy T*S    EENTRO =         0.00005831
  eigenvalues    EBANDS =      -181.69646657
  atomic energy  EATOM  =       724.24454699
  Solvation  Ediel_sol  =         0.00000000
  ---------------------------------------------------
  free energy    TOTEN  =       -16.52641877 eV

  energy without entropy =      -16.52647708  energy(sigma->0) =      -16.52643820


--------------------------------------------------------------------------------------------------------




--------------------------------------- Iteration      1(   7)  ---------------------------------------


    POTLOK:  cpu time    0.0140: real time    0.0147
    SETDIJ:  cpu time    0.0030: real time    0.0027
    EDDIAG:  cpu time    0.6129: real time    0.6145
  RMM-DIIS:  cpu time    0.8729: real time    0.8724
    ORTHCH:  cpu time    0.0470: real time    0.0472
       DOS:  cpu time    0.0010: real time    0.0010
    CHARGE:  cpu time    0.1590: real time    0.1588
    MIXING:  cpu time    0.0000: real time    0.0010
    --------------------------------------------
      LOOP:  cpu time    1.7097: real time    1.7123

 eigenvalue-minimisations  :  2880
 total energy-change (2. order) : 0.1559008E-01  (-0.3024972E-02)
 number of electron      20.0000002 magnetization 
 augmentation part       -3.6784002 magnetization 

 Broyden mixing:
  rms(total) = 0.10715E+00    rms(broyden)= 0.10715E+00
  rms(prec ) = 0.10935E+00
  weight for this iteration     100.00

 eigenvalues of (default mixing * dielectric matrix)
  average eigenvalue GAMMA=   1.7628
  1.1458  2.3797

 Free energy of the ion-electron system (eV)
  ---------------------------------------------------
  alpha Z        PSCENC =         7.84787564
  Ewald energy   TEWEN  =      2331.64741564
  -Hartree energ DENC   =     -2940.25095955
  -exchange      EXHF   =         0.00000000
  -V(xc)+E(xc)   XCENC  =       -17.55083891
  PAW double counting   =       796.76158228     -740.41775751
  entropy T*S    EENTRO =         0.00005835
  eigenvalues    EBANDS =      -178.79275163
  atomic energy  EATOM  =       724.24454699
  Solvation  Ediel_sol  =         0.00000000
  ---------------------------------------------------
  free energy    TOTEN  =       -16.51082869 eV

  energy without entropy =      -16.51088704  energy(sigma->0) =      -16.51084814


--------------------------------------------------------------------------------------------------------




--------------------------------------- Iteration      1(   8)  ---------------------------------------


    POTLOK:  cpu time    0.0180: real time    0.0169
    SETDIJ:  cpu time    0.0030: real time    0.0025
    EDDIAG:  cpu time    0.6109: real time    0.6127
  RMM-DIIS:  cpu time    0.8779: real time    0.8783
    ORTHCH:  cpu time    0.0480: real time    0.0482
       DOS:  cpu time    0.0010: real time    0.0011
    CHARGE:  cpu time    0.1590: real time    0.1587
    MIXING:  cpu time    0.0010: real time    0.0012
    --------------------------------------------
      LOOP:  cpu time    1.7187: real time    1.7195

 eigenvalue-minimisations  :  2880
 total energy-change (2. order) : 0.5550630E-02  (-0.7768583E-03)
 number of electron      20.0000002 magnetization 
 augmentation part       -3.6826918 magnetization 

 Broyden mixing:
  rms(total) = 0.14158E-01    rms(broyden)= 0.14158E-01
  rms(prec ) = 0.16894E-01
  weight for this iteration     100.00

 eigenvalues of (default mixing * dielectric matrix)
  average eigenvalue GAMMA=   1.5866
  2.2652  1.2473  1.2473

 Free energy of the ion-electron system (eV)
  ---------------------------------------------------
  alpha Z        PSCENC =         7.84787564
  Ewald energy   TEWEN  =      2331.64741564
  -Hartree energ DENC   =     -2942.64556023
  -exchange      EXHF   =         0.00000000
  -V(xc)+E(xc)   XCENC  =       -17.43374102
  PAW double counting   =       865.81052368     -809.48205033
  entropy T*S    EENTRO =         0.00005815
  eigenvalues    EBANDS =      -176.49434660
  atomic energy  EATOM  =       724.24454699
  Solvation  Ediel_sol  =         0.00000000
  ---------------------------------------------------
  free energy    TOTEN  =       -16.50527806 eV

  energy without entropy =      -16.50533621  energy(sigma->0) =      -16.50529744


--------------------------------------------------------------------------------------------------------




--------------------------------------- Iteration      1(   9)  ---------------------------------------


    POTLOK:  cpu time    0.0160: real time    0.0159
    SETDIJ:  cpu time    0.0030: real time    0.0026
    EDDIAG:  cpu time    0.6079: real time    0.6094
  RMM-DIIS:  cpu time    0.8789: real time    0.8791
    ORTHCH:  cpu time    0.0430: real time    0.0430
       DOS:  cpu time    0.0010: real time    0.0009
    CHARGE:  cpu time    0.1550: real time    0.1545
    MIXING:  cpu time    0.0000: real time    0.0009
    --------------------------------------------
      LOOP:  cpu time    1.7047: real time    1.7063

 eigenvalue-minimisations  :  2880
 total energy-change (2. order) : 0.1279159E-02  (-0.9009714E-04)
 number of electron      20.0000002 magnetization 
 augmentation part       -3.6804912 magnetization 

 Broyden mixing:
  rms(total) = 0.77957E-02    rms(broyden)= 0.77957E-02
  rms(prec ) = 0.10353E-01
  weight for this iteration     100.00

 eigenvalues of (default mixing * dielectric matrix)
  average eigenvalue GAMMA=   1.8279
  1.0712  1.0712  2.5846  2.5846

 Free energy of the ion-electron system (eV)
  ---------------------------------------------------
  alpha Z        PSCENC =         7.84787564
  Ewald energy   TEWEN  =      2331.64741564
  -Hartree energ DENC   =     -2943.82793873
  -exchange      EXHF   =         0.00000000
  -V(xc)+E(xc)   XCENC  =       -17.40682403
  PAW double counting   =       860.41325473     -804.08389150
  entropy T*S    EENTRO =         0.00005817
  eigenvalues    EBANDS =      -175.33849581
  atomic energy  EATOM  =       724.24454699
  Solvation  Ediel_sol  =         0.00000000
  ---------------------------------------------------
  free energy    TOTEN  =       -16.50399890 eV

  energy without entropy =      -16.50405707  energy(sigma->0) =      -16.50401829


--------------------------------------------------------------------------------------------------------




--------------------------------------- Iteration      1(  10)  ---------------------------------------


    POTLOK:  cpu time    0.0170: real time    0.0164
    SETDIJ:  cpu time    0.0030: real time    0.0028
    EDDIAG:  cpu time    0.6009: real time    0.6026
  RMM-DIIS:  cpu time    0.8869: real time    0.8872
    ORTHCH:  cpu time    0.0500: real time    0.0504
       DOS:  cpu time    0.0020: real time    0.0014
    CHARGE:  cpu time    0.1550: real time    0.1553
    MIXING:  cpu time    0.0010: real time    0.0010
    --------------------------------------------
      LOOP:  cpu time    1.7157: real time    1.7170

 eigenvalue-minimisations  :  2880
 total energy-change (2. order) : 0.1189987E-02  (-0.4713715E-04)
 number of electron      20.0000002 magnetization 
 augmentation part       -3.6801784 magnetization 

 Broyden mixing:
  rms(total) = 0.26797E-02    rms(broyden)= 0.26797E-02
  rms(prec ) = 0.46759E-02
  weight for this iteration     100.00

 eigenvalues of (default mixing * dielectric matrix)
  average eigenvalue GAMMA=   1.8769
  3.0294  1.0307  1.0307  2.1468  2.1468

 Free energy of the ion-electron system (eV)
  ---------------------------------------------------
  alpha Z        PSCENC =         7.84787564
  Ewald energy   TEWEN  =      2331.64741564
  -Hartree energ DENC   =     -2945.28270015
  -exchange      EXHF   =         0.00000000
  -V(xc)+E(xc)   XCENC  =       -17.38076629
  PAW double counting   =       858.64355819     -802.30997665
  entropy T*S    EENTRO =         0.00005814
  eigenvalues    EBANDS =      -173.91282042
  atomic energy  EATOM  =       724.24454699
  Solvation  Ediel_sol  =         0.00000000
  ---------------------------------------------------
  free energy    TOTEN  =       -16.50280891 eV

  energy without entropy =      -16.50286705  energy(sigma->0) =      -16.50282829


--------------------------------------------------------------------------------------------------------




--------------------------------------- Iteration      1(  11)  ---------------------------------------


    POTLOK:  cpu time    0.0160: real time    0.0158
    SETDIJ:  cpu time    0.0030: real time    0.0025
    EDDIAG:  cpu time    0.5999: real time    0.6018
  RMM-DIIS:  cpu time    0.8799: real time    0.8804
    ORTHCH:  cpu time    0.0480: real time    0.0473
       DOS:  cpu time    0.0000: real time    0.0010
    CHARGE:  cpu time    0.1580: real time    0.1583
    MIXING:  cpu time    0.0010: real time    0.0011
    --------------------------------------------
      LOOP:  cpu time    1.7057: real time    1.7081

 eigenvalue-minimisations  :  2880
 total energy-change (2. order) : 0.2491141E-04  (-0.1458303E-04)
 number of electron      20.0000002 magnetization 
 augmentation part       -3.6796491 magnetization 

 Broyden mixing:
  rms(total) = 0.19269E-02    rms(broyden)= 0.19269E-02
  rms(prec ) = 0.28652E-02
  weight for this iteration     100.00

 eigenvalues of (default mixing * dielectric matrix)
  average eigenvalue GAMMA=   2.0090
  3.8859  2.7328  2.0683  1.0231  1.0629  1.2810

 Free energy of the ion-electron system (eV)
  ---------------------------------------------------
  alpha Z        PSCENC =         7.84787564
  Ewald energy   TEWEN  =      2331.64741564
  -Hartree energ DENC   =     -2946.34758289
  -exchange      EXHF   =         0.00000000
  -V(xc)+E(xc)   XCENC  =       -17.36489242
  PAW double counting   =       859.33875372     -803.00478947
  entropy T*S    EENTRO =         0.00005813
  eigenvalues    EBANDS =      -172.86416936
  atomic energy  EATOM  =       724.24454699
  Solvation  Ediel_sol  =         0.00000000
  ---------------------------------------------------
  free energy    TOTEN  =       -16.50278400 eV

  energy without entropy =      -16.50284213  energy(sigma->0) =      -16.50280338


--------------------------------------------------------------------------------------------------------




--------------------------------------- Iteration      1(  12)  ---------------------------------------


    POTLOK:  cpu time    0.0160: real time    0.0157
    SETDIJ:  cpu time    0.0030: real time    0.0025
    EDDIAG:  cpu time    0.5959: real time    0.5964
  RMM-DIIS:  cpu time    0.8849: real time    0.8854
    ORTHCH:  cpu time    0.0450: real time    0.0442
       DOS:  cpu time    0.0010: real time    0.0011
    CHARGE:  cpu time    0.1580: real time    0.1589
    MIXING:  cpu time    0.0020: real time    0.0011
    --------------------------------------------
      LOOP:  cpu time    1.7057: real time    1.7053

 eigenvalue-minimisations  :  2880
 total energy-change (2. order) :-0.2923098E-03  (-0.6063748E-05)
 number of electron      20.0000002 magnetization 
 augmentation part       -3.6791209 magnetization 

 Broyden mixing:
  rms(total) = 0.18529E-02    rms(broyden)= 0.18529E-02
  rms(prec ) = 0.21976E-02
  weight for this iteration     100.00

 eigenvalues of (default mixing * dielectric matrix)
  average eigenvalue GAMMA=   2.2477
  5.1978  2.9927  2.3931  2.0609  1.0622  1.0622  0.9653

 Free energy of the ion-electron system (eV)
  ---------------------------------------------------
  alpha Z        PSCENC =         7.84787564
  Ewald energy   TEWEN  =      2331.64741564
  -Hartree energ DENC   =     -2947.05054976
  -exchange      EXHF   =         0.00000000
  -V(xc)+E(xc)   XCENC  =       -17.35856102
  PAW double counting   =       857.46797345     -801.13325936
  entropy T*S    EENTRO =         0.00005813
  eigenvalues    EBANDS =      -172.16857603
  atomic energy  EATOM  =       724.24454699
  Solvation  Ediel_sol  =         0.00000000
  ---------------------------------------------------
  free energy    TOTEN  =       -16.50307631 eV

  energy without entropy =      -16.50313444  energy(sigma->0) =      -16.50309569


--------------------------------------------------------------------------------------------------------




--------------------------------------- Iteration      1(  13)  ---------------------------------------


    POTLOK:  cpu time    0.0160: real time    0.0161
    SETDIJ:  cpu time    0.0020: real time    0.0025
    EDDIAG:  cpu time    0.6009: real time    0.6019
  RMM-DIIS:  cpu time    0.8829: real time    0.8838
    ORTHCH:  cpu time    0.0510: real time    0.0513
       DOS:  cpu time    0.0020: real time    0.0014
    CHARGE:  cpu time    0.1580: real time    0.1580
    MIXING:  cpu time    0.0010: real time    0.0013
    --------------------------------------------
      LOOP:  cpu time    1.7137: real time    1.7164

 eigenvalue-minimisations  :  2880
 total energy-change (2. order) :-0.3285240E-03  (-0.3907597E-05)
 number of electron      20.0000002 magnetization 
 augmentation part       -3.6792835 magnetization 

 Broyden mixing:
  rms(total) = 0.70252E-03    rms(broyden)= 0.70252E-03
  rms(prec ) = 0.88727E-03
  weight for this iteration     100.00

 eigenvalues of (default mixing * dielectric matrix)
  average eigenvalue GAMMA=   2.3483
  6.3087  3.0817  2.4640  0.9777  1.0500  1.0500  1.9272  1.9272

 Free energy of the ion-electron system (eV)
  ---------------------------------------------------
  alpha Z        PSCENC =         7.84787564
  Ewald energy   TEWEN  =      2331.64741564
  -Hartree energ DENC   =     -2947.45951313
  -exchange      EXHF   =         0.00000000
  -V(xc)+E(xc)   XCENC  =       -17.35725811
  PAW double counting   =       858.47071208     -802.13579184
  entropy T*S    EENTRO =         0.00005813
  eigenvalues    EBANDS =      -171.76145023
  atomic energy  EATOM  =       724.24454699
  Solvation  Ediel_sol  =         0.00000000
  ---------------------------------------------------
  free energy    TOTEN  =       -16.50340484 eV

  energy without entropy =      -16.50346296  energy(sigma->0) =      -16.50342421


--------------------------------------------------------------------------------------------------------




--------------------------------------- Iteration      1(  14)  ---------------------------------------


    POTLOK:  cpu time    0.0170: real time    0.0170
    SETDIJ:  cpu time    0.0020: real time    0.0025
    EDDIAG:  cpu time    0.6219: real time    0.6240
  RMM-DIIS:  cpu time    0.8749: real time    0.8750
    ORTHCH:  cpu time    0.0470: real time    0.0476
       DOS:  cpu time    0.0020: real time    0.0013
    CHARGE:  cpu time    0.1570: real time    0.1581
    MIXING:  cpu time    0.0020: real time    0.0012
    --------------------------------------------
      LOOP:  cpu time    1.7237: real time    1.7266

 eigenvalue-minimisations  :  2864
 total energy-change (2. order) :-0.1595279E-03  (-0.4861678E-06)
 number of electron      20.0000002 magnetization 
 augmentation part       -3.6791287 magnetization 

 Broyden mixing:
  rms(total) = 0.34343E-03    rms(broyden)= 0.34343E-03
  rms(prec ) = 0.46600E-03
  weight for this iteration     100.00

 eigenvalues of (default mixing * dielectric matrix)
  average eigenvalue GAMMA=   2.4185
  7.0144  3.4705  2.7015  2.5008  1.8245  0.9718  1.0422  1.0422  1.1983

 Free energy of the ion-electron system (eV)
  ---------------------------------------------------
  alpha Z        PSCENC =         7.84787564
  Ewald energy   TEWEN  =      2331.64741564
  -Hartree energ DENC   =     -2947.60685696
  -exchange      EXHF   =         0.00000000
  -V(xc)+E(xc)   XCENC  =       -17.35632511
  PAW double counting   =       858.39487958     -802.06023212
  entropy T*S    EENTRO =         0.00005813
  eigenvalues    EBANDS =      -171.61492616
  atomic energy  EATOM  =       724.24454699
  Solvation  Ediel_sol  =         0.00000000
  ---------------------------------------------------
  free energy    TOTEN  =       -16.50356436 eV

  energy without entropy =      -16.50362249  energy(sigma->0) =      -16.50358374


--------------------------------------------------------------------------------------------------------




--------------------------------------- Iteration      1(  15)  ---------------------------------------


    POTLOK:  cpu time    0.0150: real time    0.0155
    SETDIJ:  cpu time    0.0030: real time    0.0027
    EDDIAG:  cpu time    0.6049: real time    0.6056
  RMM-DIIS:  cpu time    0.8239: real time    0.8243
    ORTHCH:  cpu time    0.0480: real time    0.0477
       DOS:  cpu time    0.0000: real time    0.0009
    CHARGE:  cpu time    0.1600: real time    0.1594
    MIXING:  cpu time    0.0010: real time    0.0012
    --------------------------------------------
      LOOP:  cpu time    1.6557: real time    1.6573

 eigenvalue-minimisations  :  2724
 total energy-change (2. order) :-0.8116353E-04  (-0.3966075E-06)
 number of electron      20.0000002 magnetization 
 augmentation part       -3.6791997 magnetization 

 Broyden mixing:
  rms(total) = 0.17596E-03    rms(broyden)= 0.17596E-03
  rms(prec ) = 0.24752E-03
  weight for this iteration     100.00

 eigenvalues of (default mixing * dielectric matrix)
  average eigenvalue GAMMA=   2.4899
  7.3388  4.4526  2.8267  2.5215  1.8672  1.8672  1.0325  1.0325  0.9799  0.9799

 Free energy of the ion-electron system (eV)
  ---------------------------------------------------
  alpha Z        PSCENC =         7.84787564
  Ewald energy   TEWEN  =      2331.64741564
  -Hartree energ DENC   =     -2947.65913713
  -exchange      EXHF   =         0.00000000
  -V(xc)+E(xc)   XCENC  =       -17.35697499
  PAW double counting   =       858.27616824     -801.94133683
  entropy T*S    EENTRO =         0.00005813
  eigenvalues    EBANDS =      -171.56226122
  atomic energy  EATOM  =       724.24454699
  Solvation  Ediel_sol  =         0.00000000
  ---------------------------------------------------
  free energy    TOTEN  =       -16.50364553 eV

  energy without entropy =      -16.50370365  energy(sigma->0) =      -16.50366490


--------------------------------------------------------------------------------------------------------




--------------------------------------- Iteration      1(  16)  ---------------------------------------


    POTLOK:  cpu time    0.0160: real time    0.0154
    SETDIJ:  cpu time    0.0020: real time    0.0025
    EDDIAG:  cpu time    0.6199: real time    0.6205
  RMM-DIIS:  cpu time    0.8189: real time    0.8191
    ORTHCH:  cpu time    0.0430: real time    0.0437
       DOS:  cpu time    0.0010: real time    0.0009
    CHARGE:  cpu time    0.1570: real time    0.1572
    MIXING:  cpu time    0.0020: real time    0.0018
    --------------------------------------------
      LOOP:  cpu time    1.6597: real time    1.6612

 eigenvalue-minimisations  :  2639
 total energy-change (2. order) :-0.5139104E-04  (-0.1375862E-06)
 number of electron      20.0000002 magnetization 
 augmentation part       -3.6791904 magnetization 

 Broyden mixing:
  rms(total) = 0.83544E-04    rms(broyden)= 0.83544E-04
  rms(prec ) = 0.11969E-03
  weight for this iteration     100.00

 eigenvalues of (default mixing * dielectric matrix)
  average eigenvalue GAMMA=   2.5444
  7.5095  5.2031  2.8294  2.6164  2.6164  1.0191  1.0191  0.9927  1.0395  1.5714
  1.5714

 Free energy of the ion-electron system (eV)
  ---------------------------------------------------
  alpha Z        PSCENC =         7.84787564
  Ewald energy   TEWEN  =      2331.64741564
  -Hartree energ DENC   =     -2947.69323969
  -exchange      EXHF   =         0.00000000
  -V(xc)+E(xc)   XCENC  =       -17.35687644
  PAW double counting   =       858.27080774     -801.93600202
  entropy T*S    EENTRO =         0.00005813
  eigenvalues    EBANDS =      -171.52828290
  atomic energy  EATOM  =       724.24454699
  Solvation  Ediel_sol  =         0.00000000
  ---------------------------------------------------
  free energy    TOTEN  =       -16.50369692 eV

  energy without entropy =      -16.50375505  energy(sigma->0) =      -16.50371629


--------------------------------------------------------------------------------------------------------




--------------------------------------- Iteration      1(  17)  ---------------------------------------


    POTLOK:  cpu time    0.0160: real time    0.0162
    SETDIJ:  cpu time    0.0030: real time    0.0025
    EDDIAG:  cpu time    0.6089: real time    0.6098
  RMM-DIIS:  cpu time    0.8039: real time    0.8037
    ORTHCH:  cpu time    0.0490: real time    0.0499
       DOS:  cpu time    0.0010: real time    0.0009
    CHARGE:  cpu time    0.1590: real time    0.1592
    MIXING:  cpu time    0.0020: real time    0.0017
    --------------------------------------------
      LOOP:  cpu time    1.6428: real time    1.6439

 eigenvalue-minimisations  :  2599
 total energy-change (2. order) :-0.3622692E-04  (-0.7753440E-07)
 number of electron      20.0000002 magnetization 
 augmentation part       -3.6791822 magnetization 

 Broyden mixing:
  rms(total) = 0.63252E-04    rms(broyden)= 0.63252E-04
  rms(prec ) = 0.77291E-04
  weight for this iteration     100.00

 eigenvalues of (default mixing * dielectric matrix)
  average eigenvalue GAMMA=   2.6295
  8.1632  5.8624  3.5344  2.7824  2.3999  2.0021  1.7450  0.9873  1.0339  1.0339
  1.0048  1.0048

 Free energy of the ion-electron system (eV)
  ---------------------------------------------------
  alpha Z        PSCENC =         7.84787564
  Ewald energy   TEWEN  =      2331.64741564
  -Hartree energ DENC   =     -2947.70671371
  -exchange      EXHF   =         0.00000000
  -V(xc)+E(xc)   XCENC  =       -17.35678672
  PAW double counting   =       858.31924209     -801.98446118
  entropy T*S    EENTRO =         0.00005813
  eigenvalues    EBANDS =      -171.51491002
  atomic energy  EATOM  =       724.24454699
  Solvation  Ediel_sol  =         0.00000000
  ---------------------------------------------------
  free energy    TOTEN  =       -16.50373315 eV

  energy without entropy =      -16.50379127  energy(sigma->0) =      -16.50375252


--------------------------------------------------------------------------------------------------------




--------------------------------------- Iteration      1(  18)  ---------------------------------------


    POTLOK:  cpu time    0.0160: real time    0.0164
    SETDIJ:  cpu time    0.0030: real time    0.0025
    EDDIAG:  cpu time    0.6039: real time    0.6048
  RMM-DIIS:  cpu time    0.7909: real time    0.7916
    ORTHCH:  cpu time    0.0440: real time    0.0439
       DOS:  cpu time    0.0010: real time    0.0010
    CHARGE:  cpu time    0.1580: real time    0.1575
    MIXING:  cpu time    0.0010: real time    0.0015
    --------------------------------------------
      LOOP:  cpu time    1.6178: real time    1.6192

 eigenvalue-minimisations  :  2347
 total energy-change (2. order) :-0.1573467E-04  (-0.2568347E-07)
 number of electron      20.0000002 magnetization 
 augmentation part       -3.6791774 magnetization 

 Broyden mixing:
  rms(total) = 0.29208E-04    rms(broyden)= 0.29208E-04
  rms(prec ) = 0.35502E-04
  weight for this iteration     100.00

 eigenvalues of (default mixing * dielectric matrix)
  average eigenvalue GAMMA=   2.7686
  8.4236  6.6961  3.9373  3.1073  2.6396  2.5054  1.8090  1.8090  1.0250  1.0250
  1.0529  0.9734  0.9884

 Free energy of the ion-electron system (eV)
  ---------------------------------------------------
  alpha Z        PSCENC =         7.84787564
  Ewald energy   TEWEN  =      2331.64741564
  -Hartree energ DENC   =     -2947.71429848
  -exchange      EXHF   =         0.00000000
  -V(xc)+E(xc)   XCENC  =       -17.35680713
  PAW double counting   =       858.27567688     -801.94087237
  entropy T*S    EENTRO =         0.00005813
  eigenvalues    EBANDS =      -171.50734419
  atomic energy  EATOM  =       724.24454699
  Solvation  Ediel_sol  =         0.00000000
  ---------------------------------------------------
  free energy    TOTEN  =       -16.50374888 eV

  energy without entropy =      -16.50380701  energy(sigma->0) =      -16.50376826


--------------------------------------------------------------------------------------------------------




--------------------------------------- Iteration      1(  19)  ---------------------------------------


    POTLOK:  cpu time    0.0160: real time    0.0157
    SETDIJ:  cpu time    0.0020: real time    0.0025
    EDDIAG:  cpu time    0.6029: real time    0.6057
  RMM-DIIS:  cpu time    0.7829: real time    0.7829
    ORTHCH:  cpu time    0.0480: real time    0.0478
       DOS:  cpu time    0.0010: real time    0.0010
    CHARGE:  cpu time    0.1610: real time    0.1603
    MIXING:  cpu time    0.0010: real time    0.0018
    --------------------------------------------
      LOOP:  cpu time    1.6148: real time    1.6178

 eigenvalue-minimisations  :  2272
 total energy-change (2. order) :-0.7000204E-05  (-0.9471517E-08)
 number of electron      20.0000002 magnetization 
 augmentation part       -3.6791822 magnetization 

 Broyden mixing:
  rms(total) = 0.13616E-04    rms(broyden)= 0.13616E-04
  rms(prec ) = 0.15351E-04
  weight for this iteration     100.00

 eigenvalues of (default mixing * dielectric matrix)
  average eigenvalue GAMMA=   2.6909
  8.4997  7.0092  4.1921  3.1129  2.5806  2.5119  1.9807  1.6432  1.0242  1.0242
  1.0892  1.0892  0.9720  0.9441

 Free energy of the ion-electron system (eV)
  ---------------------------------------------------
  alpha Z        PSCENC =         7.84787564
  Ewald energy   TEWEN  =      2331.64741564
  -Hartree energ DENC   =     -2947.71631891
  -exchange      EXHF   =         0.00000000
  -V(xc)+E(xc)   XCENC  =       -17.35683769
  PAW double counting   =       858.28092063     -801.94611439
  entropy T*S    EENTRO =         0.00005813
  eigenvalues    EBANDS =      -171.50530192
  atomic energy  EATOM  =       724.24454699
  Solvation  Ediel_sol  =         0.00000000
  ---------------------------------------------------
  free energy    TOTEN  =       -16.50375588 eV

  energy without entropy =      -16.50381401  energy(sigma->0) =      -16.50377526


--------------------------------------------------------------------------------------------------------




--------------------------------------- Iteration      1(  20)  ---------------------------------------


    POTLOK:  cpu time    0.0160: real time    0.0160
    SETDIJ:  cpu time    0.0030: real time    0.0025
    EDDIAG:  cpu time    0.6029: real time    0.6047
  RMM-DIIS:  cpu time    0.8369: real time    0.8368
    ORTHCH:  cpu time    0.0430: real time    0.0432
       DOS:  cpu time    0.0010: real time    0.0009
    --------------------------------------------
      LOOP:  cpu time    1.5028: real time    1.5041

 eigenvalue-minimisations  :  2030
 total energy-change (2. order) :-0.6076102E-06  (-0.8027095E-10)
 number of electron      20.0000002 magnetization 
 augmentation part       -3.6791822 magnetization 

 Free energy of the ion-electron system (eV)
  ---------------------------------------------------
  alpha Z        PSCENC =         7.84787564
  Ewald energy   TEWEN  =      2331.64741564
  -Hartree energ DENC   =     -2947.71682799
  -exchange      EXHF   =         0.00000000
  -V(xc)+E(xc)   XCENC  =       -17.35683755
  PAW double counting   =       858.28245328     -801.94764720
  entropy T*S    EENTRO =         0.00005813
  eigenvalues    EBANDS =      -171.50479343
  atomic energy  EATOM  =       724.24454699
  Solvation  Ediel_sol  =         0.00000000
  ---------------------------------------------------
  free energy    TOTEN  =       -16.50375649 eV

  energy without entropy =      -16.50381461  energy(sigma->0) =      -16.50377586


--------------------------------------------------------------------------------------------------------




 average (electrostatic) potential at core
  the test charge radii are     1.1631  1.0808
  (the norm of the test charge is              1.0000)
       1 -40.2943       2 -40.2943       3 -61.3093       4 -61.3093
 
 
 
 E-fermi :  -3.7172     XC(G=0):  -2.1780     alpha+bet : -1.5637


 k-point     1 :       0.0000    0.0000    0.0000
  band No.  band energies     occupation 
      1     -16.5632      2.00000
      2     -15.4785      2.00000
      3     -10.7823      2.00000
      4      -9.5954      2.00000
      5      -6.6236      2.00000
      6      -6.2595      2.00000
      7      -6.1265      2.00000
      8      -4.7437      2.00000
      9      -4.7040      2.00000
     10      -4.1252      2.00000
     11      -1.4334      0.00000
     12      -0.4839      0.00000
     13      -0.4647      0.00000
     14      -0.1644      0.00000
     15       1.0416      0.00000
     16       1.1018      0.00000
     17       1.4646      0.00000
     18       1.5119      0.00000
     19       1.6078      0.00000
     20       2.1352      0.00000
     21       2.4815      0.00000
     22       2.5264      0.00000
     23       3.3495      0.00000
     24       3.4340      0.00000
     25       3.9751      0.00000
     26       4.3303      0.00000
     27       4.3742      0.00000
     28       4.7555      0.00000
     29       5.0864      0.00000
     30       5.5039      0.00000
     31       5.9285      0.00000
     32       6.7958      0.00000
     33       6.9900      0.00000
     34       7.0320      0.00000
     35       7.1143      0.00000
     36       7.8302      0.00000
     37       7.8641      0.00000
     38       8.2644      0.00000
     39       8.2837      0.00000
     40       8.3442      0.00000

 k-point     2 :       0.1000    0.0000    0.0000
  band No.  band energies     occupation 
      1     -16.5198      2.00000
      2     -15.4729      2.00000
      3     -10.8424      2.00000
      4      -9.6986      2.00000
      5      -6.5967      2.00000
      6      -6.2411      2.00000
      7      -6.0734      2.00000
      8      -4.8254      2.00000
      9      -4.5376      2.00000
     10      -4.1616      2.00000
     11      -1.4006      0.00000
     12      -0.6861      0.00000
     13      -0.4548      0.00000
     14      -0.3288      0.00000
     15       0.8459      0.00000
     16       1.1095      0.00000
     17       1.5175      0.00000
     18       1.5441      0.00000
     19       1.6398      0.00000
     20       2.1982      0.00000
     21       2.3289      0.00000
     22       2.6072      0.00000
     23       3.2938      0.00000
     24       3.4942      0.00000
     25       4.0527      0.00000
     26       4.4309      0.00000
     27       4.5183      0.00000
     28       4.7879      0.00000
     29       5.6007      0.00000
     30       5.7092      0.00000
     31       6.0042      0.00000
     32       7.0727      0.00000
     33       7.0925      0.00000
     34       7.2010      0.00000
     35       7.2493      0.00000
     36       7.6461      0.00000
     37       7.8907      0.00000
     38       7.9849      0.00000
     39       8.2298      0.00000
     40       8.2409      0.00000

 k-point     3 :       0.2000    0.0000    0.0000
  band No.  band energies     occupation 
      1     -16.3948      2.00000
      2     -15.4675      2.00000
      3     -10.9884      2.00000
      4      -9.9808      2.00000
      5      -6.5002      2.00000
      6      -6.1676      2.00000
      7      -5.9072      2.00000
      8      -4.8373      2.00000
      9      -4.3045      2.00000
     10      -4.2754      2.00000
     11      -1.3487      0.00000
     12      -1.3020      0.00000
     13      -0.9262      0.00000
     14      -0.2721      0.00000
     15       0.2791      0.00000
     16       1.1836      0.00000
     17       1.4583      0.00000
     18       1.7800      0.00000
     19       1.8697      0.00000
     20       2.3044      0.00000
     21       2.4642      0.00000
     22       2.8465      0.00000
     23       3.6459      0.00000
     24       3.6990      0.00000
     25       4.1185      0.00000
     26       4.2817      0.00000
     27       4.6442      0.00000
     28       5.7938      0.00000
     29       5.8431      0.00000
     30       6.2283      0.00000
     31       6.2463      0.00000
     32       6.5209      0.00000
     33       6.8680      0.00000
     34       7.0124      0.00000
     35       7.1420      0.00000
     36       7.3947      0.00000
     37       7.6800      0.00000
     38       7.8211      0.00000
     39       7.9443      0.00000
     40       8.2553      0.00000

 k-point     4 :       0.3000    0.0000    0.0000
  band No.  band energies     occupation 
      1     -16.2041      2.00000
      2     -15.4935      2.00000
      3     -11.1304      2.00000
      4     -10.3643      2.00000
      5      -6.3164      2.00000
      6      -6.0023      2.00000
      7      -5.6599      2.00000
      8      -4.8243      2.00000
      9      -4.4405      2.00000
     10      -4.0992      2.00000
     11      -1.9923      0.00000
     12      -1.4358      0.00000
     13      -1.2232      0.00000
     14      -0.6232      0.00000
     15      -0.3692      0.00000
     16       0.8393      0.00000
     17       1.7816      0.00000
     18       2.1638      0.00000
     19       2.2748      0.00000
     20       2.8410      0.00000
     21       3.1636      0.00000
     22       3.2395      0.00000
     23       3.7554      0.00000
     24       4.1469      0.00000
     25       4.4479      0.00000
     26       4.6534      0.00000
     27       5.0182      0.00000
     28       5.3175      0.00000
     29       5.4078      0.00000
     30       5.7249      0.00000
     31       5.9994      0.00000
     32       6.2077      0.00000
     33       6.3522      0.00000
     34       6.6777      0.00000
     35       6.9324      0.00000
     36       7.1655      0.00000
     37       7.3798      0.00000
     38       7.7263      0.00000
     39       8.0195      0.00000
     40       8.0383      0.00000

 k-point     5 :       0.4000    0.0000    0.0000
  band No.  band energies     occupation 
      1     -15.9771      2.00000
      2     -15.5859      2.00000
      3     -11.1661      2.00000
      4     -10.7472      2.00000
      5      -6.0640      2.00000
      6      -5.8005      2.00000
      7      -5.4200      2.00000
      8      -4.9155      2.00000
      9      -4.5130      2.00000
     10      -4.0916      2.00000
     11      -2.2516      0.00000
     12      -1.7163      0.00000
     13      -1.5877      0.00000
     14      -1.0451      0.00000
     15      -0.5413      0.00000
     16       0.3524      0.00000
     17       2.2896      0.00000
     18       2.6901      0.00000
     19       2.8418      0.00000
     20       3.3122      0.00000
     21       3.5411      0.00000
     22       3.7645      0.00000
     23       4.1824      0.00000
     24       4.4018      0.00000
     25       4.4953      0.00000
     26       4.7295      0.00000
     27       4.8819      0.00000
     28       4.9736      0.00000
     29       5.1118      0.00000
     30       5.5394      0.00000
     31       5.6846      0.00000
[...]
     39       7.2483      0.00000
     40       7.3864      0.00000

 k-point    29 :       0.4000    0.4000    0.0000
  band No.  band energies     occupation 
      1     -15.9635      2.00000
      2     -15.8171      2.00000
      3     -11.0311      2.00000
      4     -10.8506      2.00000
      5      -7.4805      2.00000
      6      -7.0697      2.00000
      7      -6.4151      2.00000
      8      -6.0281      2.00000
      9      -4.7321      2.00000
     10      -4.4477      2.00000
     11      -0.5330      0.00000
     12      -0.0077      0.00000
     13       0.1676      0.00000
     14       0.7276      0.00000
     15       1.4436      0.00000
     16       2.0507      0.00000
     17       2.4399      0.00000
     18       2.7634      0.00000
     19       3.7481      0.00000
     20       3.8325      0.00000
     21       4.0043      0.00000
     22       4.1478      0.00000
     23       4.4595      0.00000
     24       4.8665      0.00000
     25       5.0216      0.00000
     26       5.2665      0.00000
     27       5.3361      0.00000
     28       5.3898      0.00000
     29       5.5329      0.00000
     30       5.6541      0.00000
     31       5.7116      0.00000
     32       6.0812      0.00000
     33       6.1497      0.00000
     34       6.1894      0.00000
     35       6.3622      0.00000
     36       6.3915      0.00000
     37       6.4528      0.00000
     38       6.7567      0.00000
     39       6.9588      0.00000
     40       6.9841      0.00000

 k-point    30 :       0.5000    0.4000    0.0000
  band No.  band energies     occupation 
      1     -15.8567      2.00000
      2     -15.8567      2.00000
      3     -10.9791      2.00000
      4     -10.9791      2.00000
      5      -7.2907      2.00000
      6      -7.2907      2.00000
      7      -6.3778      2.00000
      8      -6.3778      2.00000
      9      -4.6117      2.00000
     10      -4.6117      2.00000
     11      -0.2423      0.00000
     12      -0.2423      0.00000
     13       0.6200      0.00000
     14       0.6200      0.00000
     15       2.0216      0.00000
     16       2.0216      0.00000
     17       2.6029      0.00000
     18       2.6029      0.00000
     19       4.0327      0.00000
     20       4.0327      0.00000
     21       4.3512      0.00000
     22       4.3512      0.00000
     23       4.7873      0.00000
     24       4.7873      0.00000
     25       4.9043      0.00000
     26       4.9043      0.00000
     27       5.4850      0.00000
     28       5.4850      0.00000
     29       5.6333      0.00000
     30       5.6333      0.00000
     31       5.9212      0.00000
     32       5.9212      0.00000
     33       6.1846      0.00000
     34       6.1846      0.00000
     35       6.2765      0.00000
     36       6.2765      0.00000
     37       6.6501      0.00000
     38       6.6501      0.00000
     39       6.7710      0.00000
     40       6.7710      0.00000

 k-point    31 :       0.0000    0.5000    0.0000
  band No.  band energies     occupation 
      1     -16.1672      2.00000
      2     -16.1672      2.00000
      3     -10.8409      2.00000
      4     -10.8409      2.00000
      5      -5.6538      2.00000
      6      -5.6538      2.00000
      7      -5.5975      2.00000
      8      -5.5975      2.00000
      9      -4.3529      2.00000
     10      -4.3529      2.00000
     11      -2.0601      0.00000
     12      -2.0601      0.00000
     13      -0.8442      0.00000
     14      -0.8442      0.00000
     15       0.0009      0.00000
     16       0.0009      0.00000
     17       2.7075      0.00000
     18       2.7075      0.00000
     19       3.1432      0.00000
     20       3.1432      0.00000
     21       3.3656      0.00000
     22       3.3656      0.00000
     23       3.8267      0.00000
     24       3.8267      0.00000
     25       4.2546      0.00000
     26       4.2546      0.00000
     27       4.8387      0.00000
     28       4.8387      0.00000
     29       5.6182      0.00000
     30       5.6182      0.00000
     31       5.7272      0.00000
     32       5.7272      0.00000
     33       6.1466      0.00000
     34       6.1466      0.00000
     35       6.3334      0.00000
     36       6.3334      0.00000
     37       7.2582      0.00000
     38       7.2582      0.00000
     39       7.6409      0.00000
     40       7.6409      0.00000

 k-point    32 :       0.1000    0.5000    0.0000
  band No.  band energies     occupation 
      1     -16.1393      2.00000
      2     -16.1393      2.00000
      3     -10.8362      2.00000
      4     -10.8362      2.00000
      5      -6.1253      2.00000
      6      -6.1253      2.00000
      7      -5.6206      2.00000
      8      -5.6206      2.00000
      9      -4.0720      2.00000
     10      -4.0720      2.00000
     11      -2.1094      0.00000
     12      -2.1094      0.00000
     13      -0.4128      0.00000
     14      -0.4128      0.00000
     15       0.0500      0.00000
     16       0.0500      0.00000
     17       2.7348      0.00000
     18       2.7348      0.00000
     19       3.1849      0.00000
     20       3.1849      0.00000
     21       3.4441      0.00000
     22       3.4441      0.00000
     23       3.8469      0.00000
     24       3.8469      0.00000
     25       4.3033      0.00000
     26       4.3033      0.00000
     27       4.7507      0.00000
     28       4.7507      0.00000
     29       5.5387      0.00000
     30       5.5387      0.00000
     31       5.8723      0.00000
     32       5.8723      0.00000
     33       5.9864      0.00000
     34       5.9864      0.00000
     35       6.8207      0.00000
     36       6.8207      0.00000
     37       7.3581      0.00000
     38       7.3581      0.00000
     39       7.6920      0.00000
     40       7.6920      0.00000

 k-point    33 :       0.2000    0.5000    0.0000
  band No.  band energies     occupation 
      1     -16.0636      2.00000
      2     -16.0636      2.00000
      3     -10.8360      2.00000
      4     -10.8360      2.00000
      5      -6.8003      2.00000
      6      -6.8003      2.00000
      7      -5.6846      2.00000
      8      -5.6846      2.00000
      9      -4.2016      2.00000
     10      -4.2016      2.00000
     11      -1.4875      0.00000
     12      -1.4875      0.00000
     13       0.0019      0.00000
     14       0.0019      0.00000
     15       0.4940      0.00000
     16       0.4940      0.00000
     17       2.7226      0.00000
     18       2.7226      0.00000
     19       3.3248      0.00000
     20       3.3248      0.00000
     21       3.6762      0.00000
     22       3.6762      0.00000
     23       3.9292      0.00000
     24       3.9292      0.00000
     25       4.4288      0.00000
     26       4.4288      0.00000
     27       4.7851      0.00000
     28       4.7851      0.00000
     29       5.5356      0.00000
     30       5.5356      0.00000
     31       6.1474      0.00000
     32       6.1474      0.00000
     33       6.2773      0.00000
     34       6.2773      0.00000
     35       6.6057      0.00000
     36       6.6057      0.00000
     37       7.4587      0.00000
     38       7.4587      0.00000
     39       7.8669      0.00000
     40       7.8669      0.00000

 k-point    34 :       0.3000    0.5000    0.0000
  band No.  band energies     occupation 
      1     -15.9642      2.00000
      2     -15.9642      2.00000
      3     -10.8661      2.00000
      4     -10.8661      2.00000
      5      -7.2387      2.00000
      6      -7.2387      2.00000
      7      -5.9182      2.00000
      8      -5.9182      2.00000
      9      -4.5022      2.00000
     10      -4.5022      2.00000
     11      -0.5459      0.00000
     12      -0.5459      0.00000
     13       0.1275      0.00000
     14       0.1275      0.00000
     15       1.2739      0.00000
     16       1.2739      0.00000
     17       2.6147      0.00000
     18       2.6147      0.00000
     19       3.6291      0.00000
     20       3.6291      0.00000
     21       4.0347      0.00000
     22       4.0347      0.00000
     23       4.2122      0.00000
     24       4.2122      0.00000
     25       4.6270      0.00000
     26       4.6270      0.00000
     27       5.1175      0.00000
     28       5.1175      0.00000
     29       5.3931      0.00000
     30       5.3931      0.00000
     31       6.2701      0.00000
     32       6.2701      0.00000
     33       6.4849      0.00000
     34       6.4849      0.00000
     35       6.7893      0.00000
     36       6.7893      0.00000
     37       7.1118      0.00000
     38       7.1118      0.00000
     39       7.2956      0.00000
     40       7.2956      0.00000

 k-point    35 :       0.4000    0.5000    0.0000
  band No.  band energies     occupation 
      1     -15.8783      2.00000
      2     -15.8783      2.00000
      3     -10.9219      2.00000
      4     -10.9219      2.00000
      5      -7.3846      2.00000
      6      -7.3846      2.00000
      7      -6.2856      2.00000
      8      -6.2856      2.00000
      9      -4.6120      2.00000
     10      -4.6120      2.00000
     11      -0.1924      0.00000
     12      -0.1924      0.00000
     13       0.5717      0.00000
     14       0.5717      0.00000
     15       1.9717      0.00000
     16       1.9717      0.00000
     17       2.5813      0.00000
     18       2.5813      0.00000
     19       3.9432      0.00000
     20       3.9432      0.00000
     21       4.3714      0.00000
     22       4.3714      0.00000
     23       4.7183      0.00000
     24       4.7183      0.00000
     25       4.8356      0.00000
     26       4.8356      0.00000
     27       5.4506      0.00000
     28       5.4506      0.00000
     29       5.5899      0.00000
     30       5.5899      0.00000
     31       5.9743      0.00000
     32       5.9743      0.00000
     33       6.2501      0.00000
     34       6.2501      0.00000
     35       6.3665      0.00000
     36       6.3665      0.00000
     37       6.6970      0.00000
     38       6.6970      0.00000
     39       6.8094      0.00000
     40       6.8094      0.00000

 k-point    36 :       0.5000    0.5000    0.0000
  band No.  band energies     occupation 
      1     -15.8440      2.00000
      2     -15.8440      2.00000
      3     -10.9518      2.00000
      4     -10.9518      2.00000
      5      -7.3781      2.00000
      6      -7.3781      2.00000
      7      -6.4827      2.00000
      8      -6.4827      2.00000
      9      -4.6260      2.00000
     10      -4.6260      2.00000
     11      -0.1857      0.00000
     12      -0.1857      0.00000
     13       0.8579      0.00000
     14       0.8579      0.00000
     15       2.2815      0.00000
     16       2.2815      0.00000
     17       2.5958      0.00000
     18       2.5958      0.00000
     19       3.9411      0.00000
     20       3.9411      0.00000
     21       4.7238      0.00000
     22       4.7238      0.00000
     23       5.1036      0.00000
     24       5.1036      0.00000
     25       5.3131      0.00000
     26       5.3131      0.00000
     27       5.4149      0.00000
     28       5.4149      0.00000
     29       5.5604      0.00000
     30       5.5604      0.00000
     31       5.5666      0.00000
     32       5.5666      0.00000
     33       6.0037      0.00000
     34       6.0037      0.00000
     35       6.2228      0.00000
     36       6.2228      0.00000
     37       6.2985      0.00000
     38       6.2985      0.00000
     39       6.5051      0.00000
     40       6.5051      0.00000


--------------------------------------------------------------------------------------------------------


 soft charge-density along one line, spin component           1
         0         1         2         3         4         5         6         7         8         9
 total charge-density along one line
 
 pseudopotential strength for first ion, spin component:           1
 16.532   0.000  20.687   0.000   0.029   0.000   0.047   0.000  -0.000   0.000   0.052   0.000   0.085   0.000   0.000   0.000
 20.687   0.000  25.904   0.000   0.036   0.000   0.060   0.000  -0.000   0.000   0.066   0.000   0.108   0.000   0.000   0.000
  0.029   0.000   0.036   0.000   3.559   0.000  -0.001   0.000   0.000   0.000   6.088   0.000  -0.002   0.000   0.000   0.000
  0.047   0.000   0.060   0.000  -0.001   0.000   3.557   0.000  -0.000   0.000  -0.002   0.000   6.084   0.000  -0.000   0.000
 -0.000   0.000  -0.000   0.000   0.000   0.000  -0.000   0.000   3.559   0.000   0.000   0.000  -0.000   0.000   6.087   0.000
  0.052   0.000   0.066   0.000   6.088   0.000  -0.002   0.000   0.000   0.000  10.476   0.000  -0.003   0.000   0.000   0.000
  0.085   0.000   0.108   0.000  -0.002   0.000   6.084   0.000  -0.000   0.000  -0.003   0.000  10.470   0.000  -0.000   0.000
  0.000   0.000   0.000   0.000   0.000   0.000  -0.000   0.000   6.087   0.000   0.000   0.000  -0.000   0.000  10.475   0.000
  0.000   0.000   0.000   0.000  -0.000   0.000   0.000   0.000   0.005   0.000  -0.000   0.000   0.000   0.000   0.009   0.000
 -0.003   0.000  -0.003   0.000   0.011   0.000   0.007   0.000   0.000   0.000   0.021   0.000   0.012   0.000   0.000   0.000
 -0.003   0.000  -0.004   0.000  -0.003   0.000   0.013   0.000   0.000   0.000  -0.006   0.000   0.024   0.000  -0.000   0.000
 -0.000   0.000  -0.000   0.000   0.000   0.000  -0.000   0.000   0.011   0.000   0.000   0.000   0.000   0.000   0.020   0.000
 -0.001   0.000  -0.001   0.000  -0.007   0.000  -0.000   0.000   0.000   0.000  -0.013   0.000  -0.000   0.000   0.000   0.000
 total augmentation occupancy for first ion, spin component:           1
  2.533  -0.556   0.209   0.431   0.000  -0.024  -0.075   0.000  -0.000  -0.028   0.014   0.000   0.012
 -0.556   0.574  -0.315  -0.566   0.000   0.042   0.088  -0.000   0.000   0.021  -0.007  -0.000  -0.013
  0.209  -0.315   0.995  -0.043   0.000  -0.149   0.023   0.000   0.000   0.039  -0.079   0.000   0.017
  0.431  -0.566  -0.043   1.388   0.000   0.023  -0.214   0.000   0.000  -0.040   0.142  -0.000  -0.003
  0.000   0.000   0.000   0.000   1.063   0.000   0.000  -0.171   0.109   0.000  -0.000   0.027   0.000
 -0.024   0.042  -0.149   0.023   0.000   0.025  -0.006   0.000   0.000  -0.006   0.013   0.000  -0.002
 -0.075   0.088   0.023  -0.214   0.000  -0.006   0.038   0.000   0.000   0.007  -0.024   0.000   0.001
 -0.000   0.000  -0.000   0.000  -0.171  -0.000   0.000   0.030  -0.018   0.000   0.000  -0.004   0.000
 -0.000   0.000   0.000   0.000   0.109   0.000   0.000  -0.018   0.022   0.000  -0.000  -0.001   0.000
 -0.028   0.021   0.039  -0.040   0.000  -0.006   0.007  -0.000  -0.000   0.010  -0.006   0.000   0.001
  0.014  -0.007  -0.079   0.142  -0.000   0.013  -0.024   0.000   0.000  -0.006   0.028   0.000  -0.003
  0.000   0.000   0.000   0.000   0.027   0.000   0.000  -0.004  -0.001  -0.000   0.000   0.008  -0.000
  0.012  -0.013   0.017  -0.003   0.000  -0.002   0.001   0.000   0.000   0.001  -0.003   0.000   0.006


------------------------ aborting loop because EDIFF is reached ----------------------------------------


    CHARGE:  cpu time    0.1590: real time    0.1593
    FORLOC:  cpu time    0.0020: real time    0.0011
    FORNL :  cpu time    0.4129: real time    0.4127
    STRESS:  cpu time    1.2448: real time    1.2440
    FORCOR:  cpu time    0.0110: real time    0.0109
    FORHAR:  cpu time    0.0030: real time    0.0038
    MIXING:  cpu time    0.0070: real time    0.0071
    OFIELD:  cpu time    0.0000: real time    0.0001

  FORCE on cell =-STRESS in cart. coord.  units (eV):
  Direction    XX          YY          ZZ          XY          YZ          ZX
  --------------------------------------------------------------------------------------
  Alpha Z     7.84788     7.84788     7.84788
  Ewald    2834.91791  2797.08175 -3261.70181     0.00000     0.00000     0.00000
  Hartree  2937.28725  2924.09180 -2877.09172    -0.00000    -0.00000    -0.00000
  E(xc)     -69.54424   -69.69855   -70.45881     0.00000     0.00000    -0.00000
  Local   -6017.78934 -5969.92403  5888.58460     0.00000     0.00000    -0.00000
  n-local   118.16914   117.86845   121.52658     0.33529    -0.00000     0.00000
  augment    -5.63014    -5.88971    -6.15644     0.00000    -0.00000     0.00000
  Kinetic   191.19566   197.00168   197.47206     3.73269    -0.00000     0.00000
  Fock        0.00000     0.00000     0.00000     0.00000     0.00000     0.00000
  -------------------------------------------------------------------------------------
  Total      -3.54588    -1.62074     0.02234     0.00000     0.00000     0.00000
  in kB     -10.52494    -4.81071     0.06631     0.00000     0.00000     0.00000
  external pressure =       -5.09 kB  Pullay stress =        0.00 kB


 VOLUME and BASIS-vectors are now :
 -----------------------------------------------------------------------------
  energy-cutoff  :      400.00
  volume of cell :      539.78
      direct lattice vectors                 reciprocal lattice vectors
     4.263117030  0.000000000  0.000000000     0.234570150  0.000000000  0.000000000
     0.000000000  4.556930501  0.000000000     0.000000000  0.219445963  0.000000000
     0.000000000  0.000000000 27.785332350     0.000000000  0.000000000  0.035990212

  length of vectors
     4.263117030  4.556930501 27.785332350     0.234570150  0.219445963  0.035990212


 FORCES acting on ions
    electron-ion (+dipol)            ewald-force                    non-local-force                 convergence-correction
 -----------------------------------------------------------------------------------------------
   0.403E-14 0.103E+02 0.158E+03   0.939E-14 -.128E+02 -.161E+03   0.000E+00 0.251E+01 0.339E+01   0.139E-14 0.247E-04 -.642E-03
   0.176E-13 0.103E+02 -.158E+03   0.649E-14 -.128E+02 0.161E+03   0.000E+00 0.251E+01 -.339E+01   -.863E-15 0.247E-04 0.642E-03
   0.665E-13 -.117E+02 0.225E+03   -.629E-14 0.128E+02 -.227E+03   0.000E+00 -.111E+01 0.241E+01   -.248E-14 -.430E-03 -.300E-02
   0.239E-13 -.117E+02 -.225E+03   -.949E-14 0.128E+02 0.227E+03   0.000E+00 -.111E+01 -.241E+01   0.297E-14 -.430E-03 0.300E-02
 -----------------------------------------------------------------------------------------------
   0.112E-12 -.278E+01 0.713E-11   0.906E-16 0.000E+00 0.000E+00   0.000E+00 0.279E+01 0.444E-15   0.101E-14 -.811E-03 0.596E-15
 
 
 POSITION                                       TOTAL-FORCE (eV/Angst)
 -----------------------------------------------------------------------------------
      1.06578      0.55198     12.65769        -0.000000      0.010208     -0.003293
      3.19734      2.83044     15.12764        -0.000000      0.010208      0.003293
      3.19734      2.24141     12.67483         0.000000     -0.010208     -0.017856
      1.06578     -0.03706     15.11050         0.000000     -0.010208      0.017856
 -----------------------------------------------------------------------------------
    total drift:                                0.000000      0.003983      0.000000


--------------------------------------------------------------------------------------------------------



  FREE ENERGIE OF THE ION-ELECTRON SYSTEM (eV)
  ---------------------------------------------------
  free  energy   TOTEN  =       -16.62153722 eV

  energy  without entropy=      -16.62169307  energy(sigma->0) =      -16.62158917
 
 d Force =-0.4093361E-04[-0.915E-04, 0.967E-05]  d Energy =-0.4228180E-04 0.135E-05
 d Force =-0.8509293E+00[-0.851E+00,-0.851E+00]  d Ewald  =-0.8509294E+00 0.777E-07


--------------------------------------------------------------------------------------------------------


    POTLOK:  cpu time    0.0190: real time    0.0192


--------------------------------------------------------------------------------------------------------


