GeSe-monoL                              
           1
     4.263117    0.000000    0.000000
     0.000000    4.556931    0.000000
     0.000000    0.000000   27.785332
   Ge   Se
   2   2
Direct configuration=     1
   0.25000000  0.09787674  0.45639123
   0.75000000  0.59787674  0.54360877
   0.75000000  0.51512026  0.45294806
   0.25000000  0.01512026  0.54705194
Direct configuration=     2
   0.25000000  0.10217927  0.45693770
   0.75000000  0.60217927  0.54306230
   0.75000000  0.51081773  0.45350560
   0.25000000  0.01081773  0.54649440
Direct configuration=     3
   0.25000000  0.10912072  0.45781935
   0.75000000  0.60912072  0.54218065
   0.75000000  0.50387628  0.45440509
   0.25000000  0.00387628  0.54559491
Direct configuration=     4
   0.25000000  0.11227990  0.45822061
   0.75000000  0.61227990  0.54177939
   0.75000000  0.50071710  0.45481447
   0.25000000  0.00071710  0.54518553
Direct configuration=     5
   0.25000000  0.11801168  0.45774123
   0.75000000  0.61801168  0.54225877
   0.75000000  0.49498532  0.45465267
   0.25000000 -0.00501468  0.54534733
Direct configuration=     6
   0.25000000  0.12140608  0.45745734
   0.75000000  0.62140608  0.54254266
   0.75000000  0.49159092  0.45455685
   0.25000000 -0.00840908  0.54544315
Direct configuration=     7
   0.25000000  0.12060554  0.45708470
   0.75000000  0.62060554  0.54291530
   0.75000000  0.49239146  0.45459278
   0.25000000 -0.00760854  0.54540722
Direct configuration=     8
   0.25000000  0.11999405  0.45680006
   0.75000000  0.61999405  0.54319994
   0.75000000  0.49300295  0.45462022
   0.25000000 -0.00699705  0.54537978
Direct configuration=     9
   0.25000000  0.11877106  0.45623078
   0.75000000  0.61877106  0.54376922
   0.75000000  0.49422594  0.45467510
   0.25000000 -0.00577406  0.54532490
Direct configuration=    10
   0.25000000  0.11956654  0.45660106
   0.75000000  0.61956654  0.54339894
   0.75000000  0.49343046  0.45463940
   0.25000000 -0.00656954  0.54536060
Direct configuration=    11
   0.25000000  0.11941045  0.45641938
   0.75000000  0.61941045  0.54358062
   0.75000000  0.49358655  0.45498142
   0.25000000 -0.00641345  0.54501858
Direct configuration=    12
   0.25000000  0.11897331  0.45591054
   0.75000000  0.61897331  0.54408946
   0.75000000  0.49402369  0.45593932
   0.25000000 -0.00597631  0.54406068
Direct configuration=    13
   0.25000000  0.11908316  0.45603841
   0.75000000  0.61908316  0.54396159
   0.75000000  0.49391384  0.45569861
   0.25000000 -0.00608616  0.54430139
Direct configuration=    14
   0.25000000  0.12026959  0.45575693
   0.75000000  0.62026959  0.54424307
   0.75000000  0.49272741  0.45597180
   0.25000000 -0.00727259  0.54402820
Direct configuration=    15
   0.25000000  0.12096762  0.45559133
   0.75000000  0.62096762  0.54440867
   0.75000000  0.49202938  0.45613253
   0.25000000 -0.00797062  0.54386747
Direct configuration=    16
   0.25000000  0.12236367  0.45526012
   0.75000000  0.62236367  0.54473988
   0.75000000  0.49063333  0.45645399
   0.25000000 -0.00936667  0.54354601
Direct configuration=    17
   0.25000000  0.12138066  0.45549334
   0.75000000  0.62138066  0.54450666
   0.75000000  0.49161634  0.45622763
   0.25000000 -0.00838366  0.54377237
Direct configuration=    18
   0.25000000  0.12122135  0.45553113
   0.75000000  0.62122135  0.54446887
   0.75000000  0.49177565  0.45619095
   0.25000000 -0.00822435  0.54380905
Direct configuration=    19
   0.25000000  0.12107571  0.45556569
   0.75000000  0.62107571  0.54443431
   0.75000000  0.49192129  0.45615741
   0.25000000 -0.00807871  0.54384259
Direct configuration=    20
   0.25000000  0.12112928  0.45555298
   0.75000000  0.62112928  0.54444702
   0.75000000  0.49186772  0.45616975
   0.25000000 -0.00813228  0.54383025
Direct configuration=    21
   0.25000000  0.12123961  0.45557702
   0.75000000  0.62123961  0.54442298
   0.75000000  0.49175739  0.45605457
   0.25000000 -0.00824261  0.54394543
Direct configuration=    22
   0.25000000  0.12119534  0.45556737
   0.75000000  0.62119534  0.54443263
   0.75000000  0.49180166  0.45610079
   0.25000000 -0.00819834  0.54389921
Direct configuration=    23
   0.25000000  0.12120789  0.45557011
   0.75000000  0.62120789  0.54442989
   0.75000000  0.49178911  0.45608769
   0.25000000 -0.00821089  0.54391231
Direct configuration=    24
   0.25000000  0.12119922  0.45556822
   0.75000000  0.62119922  0.54443178
   0.75000000  0.49179778  0.45609674
   0.25000000 -0.00820222  0.54390326
Direct configuration=    25
   0.25000000  0.12120355  0.45556916
   0.75000000  0.62120355  0.54443084
   0.75000000  0.49179345  0.45609222
   0.25000000 -0.00820655  0.54390778
Direct configuration=    26
   0.25000000  0.12120572  0.45556963
   0.75000000  0.62120572  0.54443037
   0.75000000  0.49179128  0.45608995
   0.25000000 -0.00820872  0.54391005
Direct configuration=    27
   0.25000000  0.12120637  0.45556978
   0.75000000  0.62120637  0.54443022
   0.75000000  0.49179063  0.45608927
   0.25000000 -0.00820937  0.54391073
Direct configuration=    28
   0.25000000  0.12120713  0.45556994
   0.75000000  0.62120713  0.54443006
   0.75000000  0.49178987  0.45608848
   0.25000000 -0.00821013  0.54391152
Direct configuration=    29
   0.25000000  0.12120661  0.45556983
   0.75000000  0.62120661  0.54443017
   0.75000000  0.49179039  0.45608903
   0.25000000 -0.00820961  0.54391097
Direct configuration=    30
   0.25000000  0.12120687  0.45556988
   0.75000000  0.62120687  0.54443012
   0.75000000  0.49179013  0.45608875
   0.25000000 -0.00820987  0.54391125
Direct configuration=    31
   0.25000000  0.12120669  0.45556985
   0.75000000  0.62120669  0.54443015
   0.75000000  0.49179031  0.45608894
   0.25000000 -0.00820969  0.54391106
Direct configuration=    32
   0.25000000  0.12120678  0.45556986
   0.75000000  0.62120678  0.54443014
   0.75000000  0.49179022  0.45608885
   0.25000000 -0.00820978  0.54391115
Direct configuration=    33
   0.25000000  0.12120672  0.45556985
   0.75000000  0.62120672  0.54443015
   0.75000000  0.49179028  0.45608891
   0.25000000 -0.00820972  0.54391109
Direct configuration=    34
   0.25000000  0.12120675  0.45556986
   0.75000000  0.62120675  0.54443014
   0.75000000  0.49179025  0.45608888
   0.25000000 -0.00820975  0.54391112
Direct configuration=    35
   0.25000000  0.12120673  0.45556985
   0.75000000  0.62120673  0.54443015
   0.75000000  0.49179027  0.45608890
   0.25000000 -0.00820973  0.54391110
Direct configuration=    36
   0.25000000  0.12120672  0.45556985
   0.75000000  0.62120672  0.54443015
   0.75000000  0.49179028  0.45608891
   0.25000000 -0.00820972  0.54391109
Direct configuration=    37
   0.25000000  0.12120672  0.45556985
   0.75000000  0.62120672  0.54443015
   0.75000000  0.49179028  0.45608891
   0.25000000 -0.00820972  0.54391109
Direct configuration=    38
   0.25000000  0.12120672  0.45556985
   0.75000000  0.62120672  0.54443015
   0.75000000  0.49179028  0.45608891
   0.25000000 -0.00820972  0.54391109
